<?xml version="1.0"?>
<VTKFile type="UnstructuredGrid"  version="0.1"  >
<UnstructuredGrid>
<Piece  NumberOfPoints="1380" NumberOfCells="2630">
<Points>
<DataArray  type="Float64"  NumberOfComponents="3"  format="ascii">-1 -1 0  1 -1 0  1 1 0  -1 1 0  0 -1 0  1 0 0  0 1 0  -1 0 0  0 0 0  -1 -0.5 0  -0.5 -1 0  -0.5 1 0  -1 0.5 0  1 -0.5 0  0.5 -1 0  1 0.5 0  0.5 1 0  0.4166666666666666 -0.4166666666666667 0  -0.4166666666666667 0.4166666666666667 0  -0.25 -0.5 0  0.5 0.25 0  -0.4861111111111112 -0.06944444444444445 0  0.0732758620689655 0.507183908045977 0  -0.625 -0.625 0  0.625 0.625 0  0.7380952380952381 -0.25 0  -0.7099116161616161 0.2105429292929293 0  -0.25 0.7380952380952381 0  0.105392156862745 -0.6348039215686275 0  0.6770833333333334 -0.6770833333333333 0  -0.6770833333333334 0.6770833333333334 0  0.3472222222222222 -0.06944444444444446 0  -0.7264957264957265 -0.3044871794871795 0  0.3141940982507127 0.7297313660835709 0  0.02049587951122483 -0.3227479397556124 0  -0.2690972222222223 0.1475694444444444 0  0.3859500089908372 -0.7274430156831472 0  -0.2228477945123298 -0.1761765495248019 0  0.2182539682539683 0.1884920634920635 0  0.75 0.375 0  -0.145442219440968 -0.7602211097204841 0  0.7088913690476191 0.0427827380952381 0  -0.75 -1 0  -1 -0.75 0  1 0.75 0  0.75 1 0  -0.7439982703698937 -0.04614153195464455 0  -0.4609235096577606 -0.3356498099556895 0  0.4063134471431929 0.4895621842856023 0  0.25 -1 0  -0.25 -1 0  -0.75 1 0  0.75 -1 0  -1 -0.25 0  -1 0.25 0  1 -0.25 0  -0.25 1 0  1 -0.75 0  -1 0.75 0  0.25 1 0  1 0.25 0  -0.4041423272138783 -0.7597141090712928 0  0.06500839607911253 0.7578103030529481 0  -0.1572801182352047 0.3838997021864289 0  -0.6528005242053915 0.4409494757946086 0  -0.4930160984848485 0.1544744318181818 0  -0.4732142857142858 0.7752976190476191 0  0.6398809523809523 -0.4538690476190476 0  0.5166054117396399 -0.2161233620965164 0  -0.002273787244753427 0.2232363985975174 0  0.1500564496765022 -0.1524955293952667 0  0.2016720420046758 -0.4410343282803009 0  -0.08495178036419618 0.6274139771124571 0  -0.8367311471133162 0.3642591720794645 0  -0.8333333333333334 -0.625 0  -0.594323836800685 -0.8231079456002283 0  -0.4466957714776065 -0.5349126855671806 0  0.8125 0.5625 0  0.78125 0.78125 0  0.5091392650016769 0.7947130883338923 0  0.125 -0.8382681931833136 0  -0.8184523809523809 -0.8184523809523809 0  -0.07781530426104531 -0.5819319697006881 0  0.5085055196703295 0.04967610411902112 0  0.2918471072074933 -0.276017202318847 0  0.5120763537765269 -0.5898771553229597 0  0.625 -0.8585349462365591 0  0.8158532234335381 -0.8158532234335381 0  -0.5198088446315396 0.5739411553684605 0  -0.8585349462365591 0.625 0  -0.8150493805516597 0.8156205699829586 0  0.8585349462365591 -0.625 0  -0.2688268348649726 0.5439331383603209 0  0.8242100426758139 -0.4436043596336612 0  0.5833756314287952 0.4479378157143976 0  0.8690476190476191 -0.125 0  -0.125 0.8690476190476191 0  -0.8692745600729823 0.125 0  0.8696725120759167 0.125 0  -0.625 0.8711516477451908 0  0.2339522463269718 0.3879558377955778 0  0.2453709502295031 0.5655822922838026 0  0.1730610651637797 0.02021709580868947 0  0.3245402594056757 -0.5644672020485209 0  -0.7291666666666666 -0.4816595441595442 0  -1 -0.375 0  -0.5811140848639904 -0.2127276307675001 0  0.673332592838314 0.2158348143233718 0  0.375 1 0  -0.5714768890989919 0.2985103444040069 0  -1 -0.125 0  -0.8453692574786325 -0.1875 0  -0.3144549134065865 -0.02408675326008025 0  -0.2898414972096258 -0.3336092734780093 0  -0.1075052092206287 -0.4224330421314983 0  -0.05043970703604117 -0.1652278959397459 0  0.6459672950297897 -0.1113415301525317 0  0.4645210271029513 0.6398480556579343 0  0.3512863754411909 0.0937979496253573 0  -0.6063160985568274 0.03891469652249891 0  -0.3428819444444445 0.8690476190476191 0  0.625 1 0  -0.1602164796159982 0.02697860906625157 0  0.04648110064133829 -0.4808416424239687 0  1 0.875 0  -0.3836102479201657 0.6484936449177356 0  -0.3776011723096096 0.263078478984336 0  -0.6024978259969829 -0.3949628096211138 0  0.125 1 0  0.2010781308272777 0.8456221018461906 0  0.2822509696388829 -0.845902544691141 0  -0.3285533674953515 -0.6289773550938936 0  0.3461306793221754 0.278777492464833 0  0.4737475672408696 -0.8508448959534423 0  0.2384632828836344 -0.7029523187242811 0  -0.004777287059791593 0.3759269695907358 0  -0.8499735021850066 -0.3912320205328522 0  0.1222536293721587 0.2963971539625205 0  -0.3769456520999688 -0.203572526805711 0  -0.2749617205755651 -0.8464290792698902 0  0.004805888512766143 -0.747174355248311 0  -0.125 -1 0  -0.06001061822252458 -0.8724007765244854 0  0.875 0.4375 0  0.854421179608893 0.271342359217786 0  0.875 1 0  -0.1499861095763589 0.2358309656934888 0  0.3381943639137225 0.8663061796405532 0  -0.7853090110442228 0.4998412775277108 0  0.7398165998560814 -0.5535192694951373 0  0.1580042122341573 -0.3100246140259917 0  -0.7291666666666667 -0.7142857142857142 0  -0.375 -1 0  0.6483368386154684 0.8514905990110488 0  -0.1295370103291928 -0.2826118305021242 0  0.07458201853700455 0.1123894386563915 0  0.6146465857036327 -0.3161203659316075 0  0.5551898493894731 -0.740296118159085 0  0.375 -1 0  0.482702798370208 -0.084133350091034 0  0.87890625 0.68359375 0  -0.05917195534525846 0.4971092425697621 0  0.1260710309213975 0.6343750312956699 0  0.8690476190476191 -0.3077066815262848 0  -0.2912010232560567 0.3668168386732139 0  -0.875 1 0  -1 0.875 0  1 -0.875 0  0.875 -1 0  -0.8689564281364567 -0.006189266075306407 0  -0.7449425635110547 0.08458938160051771 0  -0.7150266761936593 -0.1739444581417552 0  -0.5260034831318311 -0.711099823962112 0  -0.4724626808827322 -0.871722230709409 0  0.4734436795977052 0.377714794132168 0  -0.875 -1 0  -1 -0.875 0  0.6927189078571988 0.5156567235715964 0  -0.3742497615796874 -0.4296005251260107 0  -0.1969436423297711 -0.6387157229772615 0  -0.6179496409766825 -0.08933356056510935 0  -0.424405057115988 0.04452428810878029 0  -0.08479048335844169 0.1279607007132633 0  0.003830300099055113 0.8712085230656206 0  0.8748778838820267 -1.379218479898026e-05 0  -0.375 1 0  -0.625 1 0  1 0.125 0  -0.125 1 0  1 -0.375 0  1 -0.125 0  1 -0.625 0  0.625 -1 0  0.125 -1 0  -0.625 -1 0  -1 -0.625 0  -1 0.125 0  -1 0.375 0  -1 0.625 0  1 0.375 0  1 0.625 0  0.6325660748712082 0.3335187599557389 0  -0.06420945895056573 0.7549874027425891 0  -0.8769015540914771 0.2478802253893416 0  0.871875 0.871875 0  -0.6868091492840067 0.3270978624973681 0  -0.5363597469565949 0.412994850055505 0  -0.6803734992638302 0.5574295000651103 0  -0.7076253581162534 -0.8803439094224437 0  -0.8778089002295137 -0.5106896447504627 0  -0.3860184984222981 0.530566778071246 0  0.6109900617121508 0.1128453077697081 0  0.3896945134930274 -0.1915382873255086 0  0.7605656944697778 -0.06822134873122943 0  0.3576151269893478 0.5948388411612135 0  -0.5689902680792265 -0.5143596830118065 0  0.6262446286847614 -0.5735657901943212 0  0.2030558252325225 -0.5625263842513452 0  0.6123273142928579 0.7407533260723429 0  0.4016460890123554 -0.3042863223111857 0  -0.59039693199147 0.7578418819188018 0  0.7276932493917544 -0.3705808024528924 0  0.5222536818742854 -0.4713886230400014 0  -0.5101986527137737 0.8848365765607674 0  0.510560172809238 0.5356013299918891 0  -0.3603569195756083 0.75823710606415 0  0.1967279277813232 0.728226870058472 0  -0.6086880986371127 0.1545624071548516 0  -0.38105366729386 0.1511189987807864 0  -0.2944659463671584 -0.7359061804869591 0  0.5060729154966499 -0.3475227845833823 0  -0.09281616240412746 -0.06197858250969457 0  0.7649739583333334 0.6673177083333334 0  0.7628906249999999 0.890234375 0  -0.2666864184909611 0.2585504071132311 0  0.3635064892129658 0.3878003602709461 0  -0.2339409722222222 0.8901937905844155 0  -0.1718792125974916 -0.8957733325456778 0  0.1001768566329531 0.4023510017391879 0  0.3120260172693757 -0.4540546875576884 0  0.7804062804433681 0.1896628610854537 0  0.4087715451998049 0.187961780041608 0  -0.1584963477271457 0.5451611892421655 0  -0.8926817849258324 0.463022006336401 0  0.2338091473445219 -0.07576267331277289 0  0.08171112182813692 -0.2349087687359925 0  0.04635385178956847 -0.1044635073718474 0  -0.4377391632114205 -0.6448874471423088 0  -0.1907678351227189 0.6480215912813945 0  0.300605946475244 0.4741444604171038 0  -0.2145033720757486 -0.06751709909419711 0  0.6069191921170397 -0.005492331448357812 0  0.0214718770761248 0.6032397936031719 0  0.5476675683364878 0.8992752415326501 0  0.4387475014316537 0.9093708953002239 0  -0.4932997685306436 -0.4381009159993523 0  0.2515197695339056 -0.1791673369138964 0  -0.7291666666666667 -0.6088789682539681 0  -0.9166666666666667 -0.6875 0  0.620579540363709 -0.2122431523583302 0  -0.484950136419973 0.6719440339397442 0  0.2857044415400258 0.0137589173127316 0  -0.8945708364098356 -0.288306105327986 0  0.4043102720140535 0.7842914560451557 0  0.04123256238752064 -0.9026968245801402 0  0.2003676884403109 -0.9091888601740487 0  0.1068775558538842 -0.7373377130403223 0  -0.4804566783514427 -0.1763307203045643 0  0.108286342087769 -0.3993789328997278 0  -0.191883080105361 -0.3640821726430649 0  -0.07025064492006244 0.2984876656890053 0  -0.7039324641409584 0.788312126296613 0  -0.7311286585775438 0.8932502354831682 0  0.5171409396884947 0.1503852691889257 0  0.4229392823658633 -0.003216522184234835 0  -0.5621736087218259 -0.919558629836806 0  -0.626474064879544 -0.7266572613636506 0  0.2446828746617422 0.2867616783302419 0  0.1759429608742923 0.4776611759306416 0  -0.3468240303741654 -0.5260416435617549 0  -0.7465808808425306 0.4069574477998361 0  -0.7819962170660292 0.2802441065650652 0  -0.3742623214119594 -0.8547800509641984 0  0.1014498009713561 0.8506721983266377 0  0.4285217620918213 -0.5230190595570253 0  0.4091738370487775 -0.6256346204225141 0  0.78125 0.46875 0  0.90625 0.53125 0  -0.4791801348852565 0.2553992655702126 0  0.7843318610782772 -0.7086046956885941 0  0.8909728264971901 -0.7355183796514634 0  0.7041908166528879 -0.7830649143180282 0  0.7311821352
[...]
<PointData  Scalars="f_24"> 
<DataArray  type="Float64"  Name="f_24"  format="ascii">2.8117463952306534e+00  2.8119358015917149e+00  2.8119382230611154e+00  2.8119561624994720e+00  2.8112071665201408e+00  2.8110660456477476e+00  2.8110725858196495e+00  2.8112134748798927e+00  2.8118941429237965e+00  2.8114495240291082e+00  2.8114388746145806e+00  2.8114348133911213e+00  2.8115999075145481e+00  2.8114256119626995e+00  2.8115910971685460e+00  2.8115922720305004e+00  2.8116006251843628e+00  2.8115233718172048e+00  2.8115340535832885e+00  2.8115899524095265e+00  2.8114548218833102e+00  2.8116280088646382e+00  2.8114250139612738e+00  2.8115243363338460e+00  2.8116367246152527e+00  2.8112230925018484e+00  2.8114292205608375e+00  2.8112340289789697e+00  2.8114562328338821e+00  2.8116132670209599e+00  2.8116207656053858e+00  2.8116134118780360e+00  2.8114007529295857e+00  2.8113834242104372e+00  2.8117796612616499e+00  2.8117690991357356e+00  2.8114957839191175e+00  2.8118453977401852e+00  2.8116827143614609e+00  2.8114334019906435e+00  2.8113228451910106e+00  2.8112025278140509e+00  2.8116529845902218e+00  2.8116585067457218e+00  2.8118841741432243e+00  2.8118808419888768e+00  2.8113426183151979e+00  2.8116089176764651e+00  2.8114982039739789e+00  2.8113385255553900e+00  2.8112472247802938e+00  2.8117703384761921e+00  2.8118282384488285e+00  2.8112527643796112e+00  2.8113537652444558e+00  2.8111393350199592e+00  2.8111470606918023e+00  2.8117596945795023e+00  2.8118295636052539e+00  2.8112666625757319e+00  2.8112510640453685e+00  2.8114150541998026e+00  2.8111830909585493e+00  2.8115770637325119e+00  2.8115307082589411e+00  2.8115985500048248e+00  2.8114174798068272e+00  2.8114291938169873e+00  2.8114147934749507e+00  2.8117533225031446e+00  2.8118081536731983e+00  2.8116189281850508e+00  2.8112793153737399e+00  2.8114732640751989e+00  2.8115533585782484e+00  2.8115258626961790e+00  2.8115353706410589e+00  2.8116571684197300e+00  2.8118445212154128e+00  2.8115955808773503e+00  2.8113008497074712e+00  2.8116616336327693e+00  2.8115081404792068e+00  2.8114134356038636e+00  2.8116468030518340e+00  2.8115250792405666e+00  2.8116924948007758e+00  2.8117860119814591e+00  2.8114990857354747e+00  2.8117001967977773e+00  2.8117945262636383e+00  2.8115929872812746e+00  2.8114073908484278e+00  2.8113664207409261e+00  2.8115096411489491e+00  2.8110923918728599e+00  2.8111008760501255e+00  2.8112944588096878e+00  2.8111500973683219e+00  2.8116028662420431e+00  2.8115411307514266e+00  2.8114153728868461e+00  2.8117907294383664e+00  2.8115212805513639e+00  2.8114727489292219e+00  2.8113392824161378e+00  2.8115168630635052e+00  2.8113205213015751e+00  2.8114263981568595e+00  2.8115280101772866e+00  2.8112133753541939e+00  2.8112780438178810e+00  2.8118009987148840e+00  2.8117220276174169e+00  2.8116908349381302e+00  2.8118906745979069e+00  2.8112533245723217e+00  2.8115281161679020e+00  2.8115949685163120e+00  2.8114904849502711e+00  2.8112511858089193e+00  2.8117604999511463e+00  2.8118804336135108e+00  2.8116184108339137e+00  2.8119466029353433e+00  2.8113835297383702e+00  2.8116375443258468e+00  2.8115036489248246e+00  2.8111407582751524e+00  2.8112327526728973e+00  2.8113951191486954e+00  2.8114726938690788e+00  2.8115567442171456e+00  2.8115586685805791e+00  2.8114343997098592e+00  2.8115834171466489e+00  2.8113795933959986e+00  2.8116484847264060e+00  2.8117240888618857e+00  2.8113042914669975e+00  2.8113321457958258e+00  2.8111979036358350e+00  2.8112355793684665e+00  2.8115022681807793e+00  2.8112924128080286e+00  2.8119480183656118e+00  2.8117403894793238e+00  2.8113814368108350e+00  2.8115799088784237e+00  2.8115028649394760e+00  2.8117316198867179e+00  2.8115798463875739e+00  2.8113288472855564e+00  2.8117665988237093e+00  2.8118171554317963e+00  2.8118160178123102e+00  2.8113553254165624e+00  2.8115952081988560e+00  2.8114582802677957e+00  2.8114420770491027e+00  2.8118070772303989e+00  2.8114328675549323e+00  2.8113090330959567e+00  2.8112062479042592e+00  2.8115836623789918e+00  2.8118852971629500e+00  2.8119124049776820e+00  2.8118696640220513e+00  2.8118983899055903e+00  2.8112517815310167e+00  2.8113614910477507e+00  2.8113772960548515e+00  2.8114927526228128e+00  2.8114268307377261e+00  2.8114947833387123e+00  2.8117272449383961e+00  2.8117306189966578e+00  2.8115772944113817e+00  2.8116146273372604e+00  2.8114487003898443e+00  2.8114748487419461e+00  2.8116869446345678e+00  2.8118394329120817e+00  2.8110985414972203e+00  2.8110868701651093e+00  2.8112768414040099e+00  2.8116094435480465e+00  2.8111307187011056e+00  2.8110775773663055e+00  2.8112655863826723e+00  2.8110660518269110e+00  2.8116009476727259e+00  2.8117215384108825e+00  2.8112515839033154e+00  2.8115550619051790e+00  2.8115605920339046e+00  2.8112600667922805e+00  2.8114699219113897e+00  2.8117320973840512e+00  2.8114150786778520e+00  2.8117525832173258e+00  2.8114248270131634e+00  2.8111596817107025e+00  2.8113710945299450e+00  2.8119315544546128e+00  2.8114854036742076e+00  2.8115305284795595e+00  2.8115797117854227e+00  2.8116164281777207e+00  2.8114646766636033e+00  2.8114575794929042e+00  2.8113167386711413e+00  2.8115592213732317e+00  2.8111461069323367e+00  2.8114582069111163e+00  2.8115199660454855e+00  2.8115210623093509e+00  2.8115256615393647e+00  2.8116893096965434e+00  2.8115407014569014e+00  2.8115523047560536e+00  2.8113216747443981e+00  2.8114820481547129e+00  2.8114516733176131e+00  2.8115348006591550e+00  2.8113091604625695e+00  2.8112803403169027e+00  2.8114958459624551e+00  2.8116935935306979e+00  2.8113806221889419e+00  2.8114534140690184e+00  2.8119094320980289e+00  2.8117488382413356e+00  2.8118801942689484e+00  2.8116877719192392e+00  2.8115168479232899e+00  2.8111491231533567e+00  2.8112367792403234e+00  2.8115440233909492e+00  2.8115674206168109e+00  2.8112395310023737e+00  2.8115262033912263e+00  2.8113818429114432e+00  2.8115596320227976e+00  2.8117423996753299e+00  2.8118193320399856e+00  2.8118811593256168e+00  2.8114830362068606e+00  2.8112806220054201e+00  2.8114845945496847e+00  2.8118705177406671e+00  2.8112933751999760e+00  2.8113103757074072e+00  2.8116590090255951e+00  2.8115141136700021e+00  2.8115571657761964e+00  2.8117120483500040e+00  2.8115333665474993e+00  2.8116071986047113e+00  2.8113039042020360e+00  2.8114535572625914e+00  2.8116798419260047e+00  2.8112990562907179e+00  2.8114712082429882e+00  2.8112359382730614e+00  2.8113151433567021e+00  2.8113637247959979e+00  2.8116267922680667e+00  2.8116858799962920e+00  2.8117341539833371e+00  2.8116791245775166e+00  2.8116799077009809e+00  2.8117356409641814e+00  2.8114196430320781e+00  2.8115163923643043e+00  2.8114987252581893e+00  2.8115392856100279e+00  2.8116072766985414e+00  2.8114672503658547e+00  2.8115530803846411e+00  2.8115141959450951e+00  2.8114269524196831e+00  2.8113570212499961e+00  2.8111502769649315e+00  2.8115175509759371e+00  2.8115141612112171e+00  2.8115401130574171e+00  2.8116315089973583e+00  2.8115843449474855e+00  2.8116757553067133e+00  2.8117315093629793e+00  2.8117066564029360e+00  2.8117877129040489e+00  2.8118575667396204e+00  2.8117877020838509e+00  2.8117179471403899e+00  2.8115003906700058e+00  2.8116810443997942e+00  2.8117161908203863e+00  2.8116739697117641e+00  2.8116152412054904e+00  2.8118370895218847e+00  2.8118667026868343e+00  2.8113218321352740e+00  2.8115380278131732e+00  2.8114763756242329e+00  2.8113922590640348e+00  2.8115122253586615e+00  2.8115445884183270e+00  2.8116391625480177e+00  2.8116109122508846e+00  2.8117341635024951e+00  2.8117345159050062e+00  2.8115031304314182e+00  2.8116518548289475e+00  2.8116530035091429e+00  2.8114602313174522e+00  2.8112948917283225e+00  2.8118854107534017e+00  2.8115094548577981e+00  2.8115032912448488e+00  2.8115351584360941e+00  2.8116536445069573e+00  2.8113350646314887e+00  2.8117666165342872e+00  2.8114845634712071e+00  2.8117129527295188e+00  2.8111618855732088e+00  2.8115394824536648e+00  2.8118269309164496e+00  2.8114764367898770e+00  2.8114073981382424e+00  2.8112930143081236e+00  2.8111508009151303e+00  2.8112745034472622e+00  2.8111230314726665e+00  2.8113975551315797e+00  2.8115931008727046e+00  2.8114840102212959e+00  2.8115673483338672e+00  2.8115695073362317e+00  2.8110722590267887e+00  2.8113587472875916e+00  2.8112415445144059e+00  2.8111426524182286e+00  2.8111885359957882e+00  2.8117982438307352e+00  2.8114021485767013e+00  2.8115967939409394e+00  2.8115252842067524e+00  2.8113315558548231e+00  2.8118542172502572e+00  2.8113911459306009e+00  2.8118354589338281e+00  2.8113534203221189e+00  2.8114192878292714e+00  2.8114979100103152e+00  2.8115086866105861e+00  2.8118158930751971e+00  2.8114130587192534e+00  2.8112177781589187e+00  2.8110958828915158e+00  2.8110634653010065e+00  2.8111019023308339e+00  2.8119054144957976e+00  2.8119539720569353e+00  2.8112431596536505e+00  2.8113816885231748e+00  2.8115473760521827e+00  2.8113688830861268e+00  2.8118234848090031e+00  2.8114625573002558e+00  2.8115796268605586e+00  2.8112171874543264e+00  2.8118500052253337e+00  2.8113061065986149e+00  2.8115837933979400e+00  2.8117614592110307e+00  2.8118366996040312e+00  2.8118899096864731e+00  2.8115571210297028e+00  2.8118478911564413e+00  2.8112001682551155e+00  2.8115885767510971e+00  2.8116537117681553e+00  2.8116646980359365e+00  2.8117980644634364e+00  2.8114208636203042e+00  2.8114944444455761e+00  2.8111656052901672e+00  2.8114183428251631e+00  2.8114710868782962e+00  2.8113316280200737e+00  2.8117785905146095e+00  2.8116623972094521e+00  2.8114004276002986e+00  2.8115306323232434e+00  2.8112488162205738e+00  2.8113450056448666e+00  2.8112221779312394e+00  2.8116357384365056e+00  2.8112104016186734e+00  2.8112123258645982e+00  2.8112859756503163e+00  2.8114542972836518e+00  2.8113553005081258e+00  2.8115395865876081e+00  2.8116109040871557e+00  2.8117018801369711e+00  2.8117736174713248e+00  2.8113895259065349e+00  2.8115420263652657e+00  2.8114852610364474e+00  2.8115193728852654e+00  2.8114966539170245e+00  2.8115588701701930e+00  2.8115192045835795e+00  2.8118894368624776e+00  2.8118604198945718e+00  2.8116557387302330e+00  2.8115077617107547e+00  2.8113054548499639e+00  2.8114238985062960e+00  2.8115500666481181e+00  2.8115903394967745e+00  2.8114760908853040e+00  2.8115121825779168e+00  2.8115770529186821e+00  2.8115052140268122e+00  2.8113772021644245e+00  2.8117230109018938e+00  2.8111946225637019e+00  2.8112287467619610e+00  2.8117626815497161e+00  2.8112685479748381e+00  2.8112617864638527e+00  2.8113482205351059e+00  2.8115479929646607e+00  2.8115856052700172e+00  2.8113617361573473e+00  2.8115010591202063e+00  2.8119271976681937e+00  2.8114425586610174e+00  2.8114857537011884e+00  2.8118612930851521e+00  2.8115358788545421e+00  2.8117034227209263e+00  2.8119283375734359e+00  2.8116590611031769e+00  2.8115532046551643e+00  2.8113246134324323e+00  2.8114478609524904e+00  2.8116509250500163e+00  2.8112388828128259e+00  2.8112122209091757e+00  2.8116560962035577e+00  2.8117206871481715e+00  2.8117424722513151e+00  2.8112446443304910e+00  2.8111064900810194e+00  2.8113939146775766e+00  2.8114618037290851e+00  2.8113371174839603e+00  2.8115523477084885e+00  2.8113075783285759e+00  2.8114357240333043e+00  2.8114401480214286e+00  2.8115015134136030e+00  2.8116665098163449e+00  2.8117809476475921e+00  2.8117464686756519e+00  2.8114841975589568e+00  2.8119122289773908e+00  2.8113849054287958e+00  2.8114427103381305e+00  2.8116267299308211e+00  2.8115223612535751e+00  2.8114408880543760e+00  2.8113170412659398e+00  2.8115577704479833e+00  2.8116948174976946e+00  2.8116815785495448e+00  2.8118252439670339e+00  2.8114912090387492e+00  2.8115445504002383e+00  2.8113428072507829e+00  2.8115089737417147e+00  2.8114218898608518e+00  2.8116999526500068e+00  2.8116628677943560e+00  2.8117692401583723e+00  2.8117578467284328e+00  2.8111984751292440e+00  2.8112144736134685e+00  2.8113806341636152e+00  2.8115352252898607e+00  2.8116134893736966e+00  2.8117026909370466e+00  2.8114812774522866e+00  2.8116770387791732e+00  2.8119040999649338e+00  2.8116085837573865e+00  2.8115492689647192e+00  2.8111018631250997e+00  2.8112584890723622e+00  2.8115508610364262e+00  2.8115315547627389e+00  2.8114960778311020e+00  2.8117470939089109e+00  2.8113752827582137e+00  2.8118670846088998e+00  2.8115783844016371e+00  2.8116703940665788e+00  2.8116166670782836e+00  2.8114624467175591e+00  2.8113195553181689e+00  2.8115342987156007e+00  2.8116485143525871e+00  2.8115515516325087e+00  2.8112096209466007e+00  2.8116362967428090e+00  2.8113558673927890e+00  2.8112824579608171e+00  2.8115346586737258e+00  2.8114752180740559e+00  2.8118603910002760e+00  2.8117200952664105e+00  2.8114649013249911e+00  2.8112613231383805e+00  2.8112102765362548e+00  2.8118165150318721e+00  2.8113391945787090e+00  2.8113695296602632e+00  2.8113703406371697e+00  2.8112865301889398e+00  2.8117148342203429e+00  2.8115470369239253e+00  2.8115836671735601e+00  2.8114307551222089e+00  2.8117439263517103e+00  2.8119227072614073e+00  2.8116097049941899e+00  2.8113291796966018e+00  2.8113979677825931e+00  2.8116366973753304e+00  2.8113738385056823e+00  2.8114200421808304e+00  2.8116039283322802e+00  2.8118632789199620e+00  2.8118171330910311e+00  2.8116759649021428e+00  2.8117499288599044e+00  2.8117817908129061e+00  2.8111770823837263e+00  2.8112430490559306e+00  2.8114287327030425e+00  2.8116220838568058e+00  2.8116199332067624e+00  2.8115464460437196e+00  2.8115735281031133e+00  2.8116337961763227e+00  2.8115480282916683e+00  2.8115534073003854e+00  2.8115196913895524e+00  2.8112905643908164e+00  2.8115015789090925e+00  2.8113760298660084e+00  2.8118600797990916e+00  2.8115346407409501e+00  2.8117777072759194e+00  2.8112685708938634e+00  2.8113473381555067e+00  2.8118776187923187e+00  2.8111084898989334e+00  2.8111392562437918e+00  2.8115289369795309e+00  2.8117745423966047e+00  2.8113682092929775e+00  2.8111182236971932e+00  2.8113062637556614e+00  2.8111702937711742e+00  2.8117833956700933e+00  2.8114744270748604e+00  2.8113902540833222e+00  2.8115095973937962e+00  2.8113589688258265e+00  2.8116788611753361e+00  2.8117094807651175e+00  2.8113304654289171e+00  2.8115193928757782e+00  2.8113688136272117e+00  2.8114482390438784e+00  2.8111786655151438e+00  2.8114433049753003e+00  2.8116325538601044e+00  2.8114713236578268e+00  2.8113210676792804e+00  2.8113078063507060e+00  2.8115145034202924e+00  2.8114403842947140e+00  2.8114809823915343e+00  2.8114225867944258e+00  2.8114560032736393e+00  2.8110742105989104e+00  2.8110932965088842e+00  2.8113966375443122e+00  2.8113544442462737e+00  2.8113810171461395e+00  2.8114805891726373e+00  2.8115035303790332e+00  2.8114848836903463e+00  2.8110902505720152e+00  2.8112167412292961e+00  2.8116052791646617e+00  2.8113406519755331e+00  2.8112210005159395e+00  2.8114056283066806e+00  2.8117517420955602e+00  2.8112628974594074e+00  2.8117496598507428e+00  2.8117553652421070e+00  2.8117640692221135e+00  2.8114777159514945e+00  2.8116239606580646e+00  2.8115342069717886e+00  2.8112242476164986e+00  2.8117009370341912e+00  2.8118944531408308e+00  2.8117870587790708e+00  2.8116173966624727e+00  2.8112141369331241e+00  2.8116010166508247e+00  2.8115702057811855e+00  2.8115909406455595e+00  2.8115911374834690e+00  2.8113819865969223e+00  2.8116866647567553e+00  2.8116452348469312e+00  2.8112767417934936e+00  2.8111881290440421e+00  2.8115862041778077e+00  2.8115024453739434e+00  2.8118026575814281e+00  2.8118658736190287e+00  2.8113807387552581e+00  2.8114454797199175e+00  2.8116246247019814e+00  2.8114653358516861e+00  2.8116270137593657e+00  2.8113986551884906e+00  2.8111099634691517e+00  2.8110702748333707e+00  2.8115881063243160e+00  2.8117435343536270e+00  2.8110801742798972e+00  2.8112246112988388e+00  2.8111472684172836e+00  2.8112545727501455e+00  2.8111952337267607e+00  2.8115123638164286e+00  2.8116862014668285e+00  2.8119228483634044e+00  2.8112047821525556e+00  2.8118232943449053e+00  2.8119425516485279e+00  2.8119312225985751e+00  2.8110981665394874e+00  2.8114092097515657e+00  2.8118200079651063e+00  2.8113560690690353e+00  2.8118672417073878e+00  2.8113293153816161e+00  2.8115245827650486e+00  2.8113955875516088e+00  2.8110590757134588e+00  2.8110889234106642e+00  2.8111844535525838e+00  2.8112328307336010e+00  2.8112058339763695e+00  2.8112300235326240e+00  2.8110676129738579e+00  2.8113948210738218e+00  2.8112839256134352e+00  2.8116558306359654e+00  2.8116651564311841e+00  2.8118354597542861e+00  2.8116959933391317e+00  2.8118775074924116e+00  2.8114998738771741e+00  2.8112921207132424e+00  2.8116092810150439e+00  2.8115145716589982e+00  2.8119247435606436e+00  2.8119485781693960e+00  2.8119528975181582e+00  2.8113028668571260e+00  2.8111959284100361e+00  2.8115044754008700e+00  2.8115049579561511e+00  2.8118228353673071e+00  2.8115150708223791e+00  2.8114644457800799e+00  2.8117126417602778e+00  2.8114597831821855e+00  2.8115717008738850e+00  2.8114697603727348e+00  2.8115679054136913e+00  2.8115254084481522e+00  2.8115231616769467e+00  2.8115158860503655e+00  2.8114678105676956e+00  2.8115814518425162e+00  2.8114767529344418e+00  2.8116195565940796e+00  2.8115236312052594e+00  2.8113276864054133e+00  2.8114203336223031e+00  2.8113522809042877e+00  2.8112664067995512e+00  2.8117343043042857e+00  2.8115120811180070e+00  2.8114180412847434e+00  2.8111172979849153e+00  2.8111641817163711e+00  2.8115463479696081e+00  2.8118060886357541e+00  2.8111351481559814e+00  2.8113757261052075e+00  2.8116048556786701e+00  2.8118983274838905e+00  2.8113851856448928e+00  2.8114311023423433e+00  2.8116940830588417e+00  2.8118277962598204e+00  2.8115630374988561e+00  2.8111258710453977e+00  2.8115232433153885e+00  2.8113459444525581e+00  2.8112801329088026e+00  2.8116058883709405e+00  2.8115997347024195e+00  2.8113222603261159e+00  2.8115406288805884e+00  2.8115083197260682e+00  2.8116112582619506e+00  2.8113452333761959e+00  2.8116729169192882e+00  2.8113414511407853e+00  2.8112978022136903e+00  2.8113733206831570e+00  2.8112670686597974e+00  2.8112679882672786e+00  2.8115254019497558e+00  2.8115376406194010e+00  2.8115276601494466e+00  2.8115869281891919e+00  2.8115519351925631e+00  2.8111351008874439e+00  2.8117208174803410e+00  2.8115133001366681e+00  2.8114225106043711e+00  2.8118217772798979e+00  2.8118337684735337e+00  2.8115082092000692e+00  2.8115057743915570e+00  2.8117010525344059e+00  2.8111427742006070e+00  2.8116676365229218e+00  2.8114497437939407e+00  2.8115047705979452e+00  2.8115113208395095e+00  2.8115656392197805e+00  2.8115754851502990e+00  2.8116181959525881e+00  2.8113146902342998e+00  2.8116671749870927e+00  2.8115382562580695e+00  2.8115226498348993e+00  2.8112838132653910e+00  2.8114492371120554e+00  2.8114984979850282e+00  2.8112313717233368e+00  2.8117950536576033e+00  2.8111891615078024e+00  2.8118505241809268e+00  2.8112806926888156e+00  2.8116617928947494e+00  2.8118123095520970e+00  2.8116609221597240e+00  2.8114597992963333e+00  2.8113443436100107e+00  2.8114708252244456e+00  2.8113563463962161e+00  2.8116798995488530e+00  2.8116391134733316e+00  2.8117020997884752e+00  2.8117634986478204e+00  2.8117296569900394e+00  2.8117399250991433e+00  2.8113797770132951e+00  2.8113024924077616e+00  2.8117889365992204e+00  2.8114445603031402e+00  2.8119036110208198e+00  2.8115443784787861e+00  2.8114289219093034e+00  2.8114272011751074e+00  2.8114857259952029e+00  2.8116110002524262e+00  2.8118011678486012e+00  2.8114483528972789e+00  2.8115469028831535e+00  2.8114701971050917e+00  2.8115276216426883e+00  2.8117356813246013e+00  2.8114235687620948e+00  2.8115653798816145e+00  2.8115168151287322e+00  2.8117222906513897e+00  2.8116689940623241e+00  2.8114518110737512e+00  2.8118235078691867e+00  2.8114700383519922e+00  2.8113474932024598e+00  2.8116364511810925e+00  2.8116639994498853e+00  2.8117355720707007e+00  2.8117408496994800e+00  2.8116193586895064e+00  2.8115272209860636e