<?xml version="1.0"?>
<VTKFile type="UnstructuredGrid"  version="0.1"  >
<UnstructuredGrid>
<Piece  NumberOfPoints="1380" NumberOfCells="2630">
<Points>
<DataArray  type="Float64"  NumberOfComponents="3"  format="ascii">-1 -1 0  1 -1 0  1 1 0  -1 1 0  0 -1 0  1 0 0  0 1 0  -1 0 0  0 0 0  -1 -0.5 0  -0.5 -1 0  -0.5 1 0  -1 0.5 0  1 -0.5 0  0.5 -1 0  1 0.5 0  0.5 1 0  0.4166666666666666 -0.4166666666666667 0  -0.4166666666666667 0.4166666666666667 0  -0.25 -0.5 0  0.5 0.25 0  -0.4861111111111112 -0.06944444444444445 0  0.0732758620689655 0.507183908045977 0  -0.625 -0.625 0  0.625 0.625 0  0.7380952380952381 -0.25 0  -0.7099116161616161 0.2105429292929293 0  -0.25 0.7380952380952381 0  0.105392156862745 -0.6348039215686275 0  0.6770833333333334 -0.6770833333333333 0  -0.6770833333333334 0.6770833333333334 0  0.3472222222222222 -0.06944444444444446 0  -0.7264957264957265 -0.3044871794871795 0  0.3141940982507127 0.7297313660835709 0  0.02049587951122483 -0.3227479397556124 0  -0.2690972222222223 0.1475694444444444 0  0.3859500089908372 -0.7274430156831472 0  -0.2228477945123298 -0.1761765495248019 0  0.2182539682539683 0.1884920634920635 0  0.75 0.375 0  -0.145442219440968 -0.7602211097204841 0  0.7088913690476191 0.0427827380952381 0  -0.75 -1 0  -1 -0.75 0  1 0.75 0  0.75 1 0  -0.7439982703698937 -0.04614153195464455 0  -0.4609235096577606 -0.3356498099556895 0  0.4063134471431929 0.4895621842856023 0  0.25 -1 0  -0.25 -1 0  -0.75 1 0  0.75 -1 0  -1 -0.25 0  -1 0.25 0  1 -0.25 0  -0.25 1 0  1 -0.75 0  -1 0.75 0  0.25 1 0  1 0.25 0  -0.4041423272138783 -0.7597141090712928 0  0.06500839607911253 0.7578103030529481 0  -0.1572801182352047 0.3838997021864289 0  -0.6528005242053915 0.4409494757946086 0  -0.4930160984848485 0.1544744318181818 0  -0.4732142857142858 0.7752976190476191 0  0.6398809523809523 -0.4538690476190476 0  0.5166054117396399 -0.2161233620965164 0  -0.002273787244753427 0.2232363985975174 0  0.1500564496765022 -0.1524955293952667 0  0.2016720420046758 -0.4410343282803009 0  -0.08495178036419618 0.6274139771124571 0  -0.8367311471133162 0.3642591720794645 0  -0.8333333333333334 -0.625 0  -0.594323836800685 -0.8231079456002283 0  -0.4466957714776065 -0.5349126855671806 0  0.8125 0.5625 0  0.78125 0.78125 0  0.5091392650016769 0.7947130883338923 0  0.125 -0.8382681931833136 0  -0.8184523809523809 -0.8184523809523809 0  -0.07781530426104531 -0.5819319697006881 0  0.5085055196703295 0.04967610411902112 0  0.2918471072074933 -0.276017202318847 0  0.5120763537765269 -0.5898771553229597 0  0.625 -0.8585349462365591 0  0.8158532234335381 -0.8158532234335381 0  -0.5198088446315396 0.5739411553684605 0  -0.8585349462365591 0.625 0  -0.8150493805516597 0.8156205699829586 0  0.8585349462365591 -0.625 0  -0.2688268348649726 0.5439331383603209 0  0.8242100426758139 -0.4436043596336612 0  0.5833756314287952 0.4479378157143976 0  0.8690476190476191 -0.125 0  -0.125 0.8690476190476191 0  -0.8692745600729823 0.125 0  0.8696725120759167 0.125 0  -0.625 0.8711516477451908 0  0.2339522463269718 0.3879558377955778 0  0.2453709502295031 0.5655822922838026 0  0.1730610651637797 0.02021709580868947 0  0.3245402594056757 -0.5644672020485209 0  -0.7291666666666666 -0.4816595441595442 0  -1 -0.375 0  -0.5811140848639904 -0.2127276307675001 0  0.673332592838314 0.2158348143233718 0  0.375 1 0  -0.5714768890989919 0.2985103444040069 0  -1 -0.125 0  -0.8453692574786325 -0.1875 0  -0.3144549134065865 -0.02408675326008025 0  -0.2898414972096258 -0.3336092734780093 0  -0.1075052092206287 -0.4224330421314983 0  -0.05043970703604117 -0.1652278959397459 0  0.6459672950297897 -0.1113415301525317 0  0.4645210271029513 0.6398480556579343 0  0.3512863754411909 0.0937979496253573 0  -0.6063160985568274 0.03891469652249891 0  -0.3428819444444445 0.8690476190476191 0  0.625 1 0  -0.1602164796159982 0.02697860906625157 0  0.04648110064133829 -0.4808416424239687 0  1 0.875 0  -0.3836102479201657 0.6484936449177356 0  -0.3776011723096096 0.263078478984336 0  -0.6024978259969829 -0.3949628096211138 0  0.125 1 0  0.2010781308272777 0.8456221018461906 0  0.2822509696388829 -0.845902544691141 0  -0.3285533674953515 -0.6289773550938936 0  0.3461306793221754 0.278777492464833 0  0.4737475672408696 -0.8508448959534423 0  0.2384632828836344 -0.7029523187242811 0  -0.004777287059791593 0.3759269695907358 0  -0.8499735021850066 -0.3912320205328522 0  0.1222536293721587 0.2963971539625205 0  -0.3769456520999688 -0.203572526805711 0  -0.2749617205755651 -0.8464290792698902 0  0.004805888512766143 -0.747174355248311 0  -0.125 -1 0  -0.06001061822252458 -0.8724007765244854 0  0.875 0.4375 0  0.854421179608893 0.271342359217786 0  0.875 1 0  -0.1499861095763589 0.2358309656934888 0  0.3381943639137225 0.8663061796405532 0  -0.7853090110442228 0.4998412775277108 0  0.7398165998560814 -0.5535192694951373 0  0.1580042122341573 -0.3100246140259917 0  -0.7291666666666667 -0.7142857142857142 0  -0.375 -1 0  0.6483368386154684 0.8514905990110488 0  -0.1295370103291928 -0.2826118305021242 0  0.07458201853700455 0.1123894386563915 0  0.6146465857036327 -0.3161203659316075 0  0.5551898493894731 -0.740296118159085 0  0.375 -1 0  0.482702798370208 -0.084133350091034 0  0.87890625 0.68359375 0  -0.05917195534525846 0.4971092425697621 0  0.1260710309213975 0.6343750312956699 0  0.8690476190476191 -0.3077066815262848 0  -0.2912010232560567 0.3668168386732139 0  -0.875 1 0  -1 0.875 0  1 -0.875 0  0.875 -1 0  -0.8689564281364567 -0.006189266075306407 0  -0.7449425635110547 0.08458938160051771 0  -0.7150266761936593 -0.1739444581417552 0  -0.5260034831318311 -0.711099823962112 0  -0.4724626808827322 -0.871722230709409 0  0.4734436795977052 0.377714794132168 0  -0.875 -1 0  -1 -0.875 0  0.6927189078571988 0.5156567235715964 0  -0.3742497615796874 -0.4296005251260107 0  -0.1969436423297711 -0.6387157229772615 0  -0.6179496409766825 -0.08933356056510935 0  -0.424405057115988 0.04452428810878029 0  -0.08479048335844169 0.1279607007132633 0  0.003830300099055113 0.8712085230656206 0  0.8748778838820267 -1.379218479898026e-05 0  -0.375 1 0  -0.625 1 0  1 0.125 0  -0.125 1 0  1 -0.375 0  1 -0.125 0  1 -0.625 0  0.625 -1 0  0.125 -1 0  -0.625 -1 0  -1 -0.625 0  -1 0.125 0  -1 0.375 0  -1 0.625 0  1 0.375 0  1 0.625 0  0.6325660748712082 0.3335187599557389 0  -0.06420945895056573 0.7549874027425891 0  -0.8769015540914771 0.2478802253893416 0  0.871875 0.871875 0  -0.6868091492840067 0.3270978624973681 0  -0.5363597469565949 0.412994850055505 0  -0.6803734992638302 0.5574295000651103 0  -0.7076253581162534 -0.8803439094224437 0  -0.8778089002295137 -0.5106896447504627 0  -0.3860184984222981 0.530566778071246 0  0.6109900617121508 0.1128453077697081 0  0.3896945134930274 -0.1915382873255086 0  0.7605656944697778 -0.06822134873122943 0  0.3576151269893478 0.5948388411612135 0  -0.5689902680792265 -0.5143596830118065 0  0.6262446286847614 -0.5735657901943212 0  0.2030558252325225 -0.5625263842513452 0  0.6123273142928579 0.7407533260723429 0  0.4016460890123554 -0.3042863223111857 0  -0.59039693199147 0.7578418819188018 0  0.7276932493917544 -0.3705808024528924 0  0.5222536818742854 -0.4713886230400014 0  -0.5101986527137737 0.8848365765607674 0  0.510560172809238 0.5356013299918891 0  -0.3603569195756083 0.75823710606415 0  0.1967279277813232 0.728226870058472 0  -0.6086880986371127 0.1545624071548516 0  -0.38105366729386 0.1511189987807864 0  -0.2944659463671584 -0.7359061804869591 0  0.5060729154966499 -0.3475227845833823 0  -0.09281616240412746 -0.06197858250969457 0  0.7649739583333334 0.6673177083333334 0  0.7628906249999999 0.890234375 0  -0.2666864184909611 0.2585504071132311 0  0.3635064892129658 0.3878003602709461 0  -0.2339409722222222 0.8901937905844155 0  -0.1718792125974916 -0.8957733325456778 0  0.1001768566329531 0.4023510017391879 0  0.3120260172693757 -0.4540546875576884 0  0.7804062804433681 0.1896628610854537 0  0.4087715451998049 0.187961780041608 0  -0.1584963477271457 0.5451611892421655 0  -0.8926817849258324 0.463022006336401 0  0.2338091473445219 -0.07576267331277289 0  0.08171112182813692 -0.2349087687359925 0  0.04635385178956847 -0.1044635073718474 0  -0.4377391632114205 -0.6448874471423088 0  -0.1907678351227189 0.6480215912813945 0  0.300605946475244 0.4741444604171038 0  -0.2145033720757486 -0.06751709909419711 0  0.6069191921170397 -0.005492331448357812 0  0.0214718770761248 0.6032397936031719 0  0.5476675683364878 0.8992752415326501 0  0.4387475014316537 0.9093708953002239 0  -0.4932997685306436 -0.4381009159993523 0  0.2515197695339056 -0.1791673369138964 0  -0.7291666666666667 -0.6088789682539681 0  -0.9166666666666667 -0.6875 0  0.620579540363709 -0.2122431523583302 0  -0.484950136419973 0.6719440339397442 0  0.2857044415400258 0.0137589173127316 0  -0.8945708364098356 -0.288306105327986 0  0.4043102720140535 0.7842914560451557 0  0.04123256238752064 -0.9026968245801402 0  0.2003676884403109 -0.9091888601740487 0  0.1068775558538842 -0.7373377130403223 0  -0.4804566783514427 -0.1763307203045643 0  0.108286342087769 -0.3993789328997278 0  -0.191883080105361 -0.3640821726430649 0  -0.07025064492006244 0.2984876656890053 0  -0.7039324641409584 0.788312126296613 0  -0.7311286585775438 0.8932502354831682 0  0.5171409396884947 0.1503852691889257 0  0.4229392823658633 -0.003216522184234835 0  -0.5621736087218259 -0.919558629836806 0  -0.626474064879544 -0.7266572613636506 0  0.2446828746617422 0.2867616783302419 0  0.1759429608742923 0.4776611759306416 0  -0.3468240303741654 -0.5260416435617549 0  -0.7465808808425306 0.4069574477998361 0  -0.7819962170660292 0.2802441065650652 0  -0.3742623214119594 -0.8547800509641984 0  0.1014498009713561 0.8506721983266377 0  0.4285217620918213 -0.5230190595570253 0  0.4091738370487775 -0.6256346204225141 0  0.78125 0.46875 0  0.90625 0.53125 0  -0.4791801348852565 0.2553992655702126 0  0.7843318610782772 -0.7086046956885941 0  0.8909728264971901 -0.7355183796514634 0  0.7041908166528879 -0.7830649143180282 0  0.7311821352
[...]
<PointData  Scalars="f_24"> 
<DataArray  type="Float64"  Name="f_24"  format="ascii">1.2726031882625702e-01  1.2726419758706892e-01  1.2726345472786479e-01  1.2726464299245757e-01  1.2721718070165405e-01  1.2721523728549106e-01  1.2721498941707743e-01  1.2721688627770558e-01  1.2726325664934487e-01  1.2723810124910126e-01  1.2723815455581394e-01  1.2723878232401120e-01  1.2724096563652990e-01  1.2723868520528109e-01  1.2724078561881155e-01  1.2724058114611467e-01  1.2724049264834861e-01  1.2724123891925951e-01  1.2724127404262617e-01  1.2724032151751485e-01  1.2723876371235285e-01  1.2724164506979982e-01  1.2723785737618434e-01  1.2724186744024574e-01  1.2724376109804006e-01  1.2722697984723050e-01  1.2722948766392322e-01  1.2722707231332256e-01  1.2723171584377080e-01  1.2724636998118138e-01  1.2724654212842321e-01  1.2724940298378482e-01  1.2723060136744538e-01  1.2723087562329516e-01  1.2725294949531166e-01  1.2725389876375931e-01  1.2723536526587170e-01  1.2725588528082704e-01  1.2725371844916875e-01  1.2723345820478191e-01  1.2722478243992957e-01  1.2722434283841091e-01  1.2725375154809496e-01  1.2725389819961166e-01  1.2725769681438523e-01  1.2725749593871158e-01  1.2722434239975847e-01  1.2724159121373482e-01  1.2723936088701410e-01  1.2722432334794664e-01  1.2722269412186502e-01  1.2725657950085914e-01  1.2725707473602041e-01  1.2722243473202113e-01  1.2722449385207843e-01  1.2722160734657953e-01  1.2722173034010267e-01  1.2725628675682024e-01  1.2725706449491950e-01  1.2722293771292162e-01  1.2722300612989387e-01  1.2723382642728892e-01  1.2722192571552857e-01  1.2724633296034105e-01  1.2723840437176095e-01  1.2724099138968814e-01  1.2723736890259793e-01  1.2723759673332255e-01  1.2723778565670843e-01  1.2725693135293523e-01  1.2725823471853248e-01  1.2724392244776134e-01  1.2722948240828133e-01  1.2723256225108232e-01  1.2724561133937420e-01  1.2724382286805097e-01  1.2723912484069408e-01  1.2724443672165975e-01  1.2725493097942286e-01  1.2724085606678293e-01  1.2722192063210927e-01  1.2725396397427066e-01  1.2723488905104705e-01  1.2723784787715875e-01  1.2724885547238116e-01  1.2724020011958567e-01  1.2724860024357401e-01  1.2725648965942271e-01  1.2723992503388107e-01  1.2724877869211296e-01  1.2725669610409010e-01  1.2724731516351676e-01  1.2723655017783883e-01  1.2723511638093460e-01  1.2723860717659757e-01  1.2721850139465909e-01  1.2721838034481137e-01  1.2722088221762112e-01  1.2721913659246203e-01  1.2724767723756600e-01  1.2724454458605966e-01  1.2723538638075002e-01  1.2725922936059539e-01  1.2723795776407068e-01  1.2723775061741194e-01  1.2722959904129508e-01  1.2723554904381379e-01  1.2722958678777796e-01  1.2723106169409840e-01  1.2723739090895836e-01  1.2721813127218598e-01  1.2722235859374048e-01  1.2725346504377674e-01  1.2724781760234607e-01  1.2724607735116825e-01  1.2726046764853757e-01  1.2722866191445592e-01  1.2723865621295216e-01  1.2724871014231556e-01  1.2723304203527513e-01  1.2722822167032483e-01  1.2724980109798992e-01  1.2726059607234916e-01  1.2724211013124942e-01  1.2726251121901744e-01  1.2723510537021471e-01  1.2724597771673873e-01  1.2723702146434734e-01  1.2721729095605111e-01  1.2722240097984869e-01  1.2722782191752149e-01  1.2723494255658452e-01  1.2724564003001543e-01  1.2723903211652673e-01  1.2723065629738564e-01  1.2724750195289788e-01  1.2723167612299519e-01  1.2725155398441776e-01  1.2724772824544778e-01  1.2722593291621498e-01  1.2722413060740215e-01  1.2721806748767966e-01  1.2721918812057406e-01  1.2723602966017578e-01  1.2722568054191327e-01  1.2726247986766820e-01  1.2725475433540182e-01  1.2722928558412835e-01  1.2724074313198994e-01  1.2724182980800774e-01  1.2725179562675418e-01  1.2724750235267859e-01  1.2722970171162154e-01  1.2725019840477447e-01  1.2725422515473006e-01  1.2726050670846445e-01  1.2723418429131311e-01  1.2724310816631970e-01  1.2723194080934036e-01  1.2723978073614944e-01  1.2725280196200214e-01  1.2723865707495630e-01  1.2722970330791433e-01  1.2722599033868245e-01  1.2724519101876303e-01  1.2726204397371285e-01  1.2726238386064576e-01  1.2726173291762660e-01  1.2726205367842072e-01  1.2721894531792541e-01  1.2722498037823593e-01  1.2722743755926508e-01  1.2723976227329317e-01  1.2723652331785212e-01  1.2723982225288979e-01  1.2725877663707130e-01  1.2725879541982232e-01  1.2724078497127089e-01  1.2724215516406887e-01  1.2723216985802172e-01  1.2723229491185098e-01  1.2724606154072662e-01  1.2726030445070488e-01  1.2721690328358304e-01  1.2721691281508921e-01  1.2722966237601391e-01  1.2724836713044688e-01  1.2721741607464274e-01  1.2721655472940502e-01  1.2722944285360074e-01  1.2721660332445783e-01  1.2724812274131916e-01  1.2724965212863495e-01  1.2721913345732161e-01  1.2724668244600656e-01  1.2724663734901212e-01  1.2721901483956816e-01  1.2723209024275348e-01  1.2724998626891992e-01  1.2723118494562222e-01  1.2724974519092974e-01  1.2723460365743344e-01  1.2722182593352774e-01  1.2722558789692567e-01  1.2726075136939696e-01  1.2723403014332152e-01  1.2723944118065994e-01  1.2724255971935092e-01  1.2725082673857691e-01  1.2723888332374106e-01  1.2723842519815756e-01  1.2723112526467217e-01  1.2724561750862967e-01  1.2722167997679804e-01  1.2723628693897845e-01  1.2723937300477803e-01  1.2724159126908016e-01  1.2723701993645362e-01  1.2724611086751980e-01  1.2724346609617923e-01  1.2724423608322311e-01  1.2723247674135535e-01  1.2723933324905368e-01  1.2723966951255694e-01  1.2723974319826115e-01  1.2723143722269883e-01  1.2722630330700171e-01  1.2723378825955550e-01  1.2724793122262434e-01  1.2722996901497197e-01  1.2723889926990575e-01  1.2726219716836498e-01  1.2724945205388974e-01  1.2725717379947710e-01  1.2725040941096782e-01  1.2724212954915551e-01  1.2722189693091410e-01  1.2722067217300170e-01  1.2724518816656893e-01  1.2724202970562562e-01  1.2722421037519738e-01  1.2724413034046300e-01  1.2723556544598935e-01  1.2723839154783839e-01  1.2725609802400870e-01  1.2725701123934952e-01  1.2726186395828135e-01  1.2723716853154413e-01  1.2722973174525756e-01  1.2723989024873111e-01  1.2725830518045994e-01  1.2723068877954954e-01  1.2723087489167173e-01  1.2724393419451263e-01  1.2723594426816862e-01  1.2723978235642003e-01  1.2725342473525980e-01  1.2724334286795172e-01  1.2725000213489024e-01  1.2723162945326685e-01  1.2723861557712271e-01  1.2725338918665324e-01  1.2722543418218549e-01  1.2723452154588849e-01  1.2721838520260395e-01  1.2722271659875092e-01  1.2722584674440771e-01  1.2724169472916441e-01  1.2724741065681741e-01  1.2724862654704377e-01  1.2725246264044535e-01  1.2725088286847749e-01  1.2725457230237611e-01  1.2723748980921937e-01  1.2724414049755800e-01  1.2724234156367412e-01  1.2724400066144076e-01  1.2724902347134343e-01  1.2723990979446229e-01  1.2723905438101873e-01  1.2723603459312860e-01  1.2722943859021665e-01  1.2723072442427191e-01  1.2721884567542915e-01  1.2723960834749984e-01  1.2723782587911350e-01  1.2723846618662421e-01  1.2724285197302496e-01  1.2724138457450879e-01  1.2725081329561680e-01  1.2725455778468353e-01  1.2725101913418896e-01  1.2725512486155952e-01  1.2725943609561161e-01  1.2725459434897241e-01  1.2725147930688596e-01  1.2724163772700325e-01  1.2725553856704672e-01  1.2725789981568847e-01  1.2725483759071921e-01  1.2725040840767737e-01  1.2725958273317131e-01  1.2726102217458077e-01  1.2723201337484055e-01  1.2724240174422041e-01  1.2723339656813942e-01  1.2722805923796188e-01  1.2723509235711544e-01  1.2723737680230862e-01  1.2724557419828877e-01  1.2724947320090488e-01  1.2725646006994035e-01  1.2724845258383213e-01  1.2724093957241744e-01  1.2724473193348762e-01  1.2724514970393999e-01  1.2724044452063379e-01  1.2723120240126851e-01  1.2725759485148486e-01  1.2723964053804224e-01  1.2723968351619167e-01  1.2724039143973701e-01  1.2724760734909396e-01  1.2722895470779844e-01  1.2725210340938997e-01  1.2723470618981086e-01  1.2725538518973359e-01  1.2722253751860074e-01  1.2723927673960833e-01  1.2725821319591260e-01  1.2723436690269263e-01  1.2723696172145407e-01  1.2722629674839833e-01  1.2722249079230341e-01  1.2722090978916611e-01  1.2722077188396611e-01  1.2723390884806041e-01  1.2723958845308375e-01  1.2723662619057868e-01  1.2724076214718597e-01  1.2724300386353954e-01  1.2721582289715255e-01  1.2722480363465324e-01  1.2721804492989855e-01  1.2721999332232634e-01  1.2722022536800437e-01  1.2725259064749195e-01  1.2722822720712251e-01  1.2724145560040792e-01  1.2723638046917177e-01  1.2722709187089934e-01  1.2725941160957482e-01  1.2723261275313127e-01  1.2726063125811718e-01  1.2723414865238417e-01  1.2723335417613957e-01  1.2724086822122285e-01  1.2724021224806412e-01  1.2725895640852589e-01  1.2722828237957259e-01  1.2721758895858570e-01  1.2721638565398943e-01  1.2721600883302314e-01  1.2721606806913377e-01  1.2726267215343554e-01  1.2726303117990920e-01  1.2722576462407148e-01  1.2723409963250421e-01  1.2723778865753918e-01  1.2722612447097525e-01  1.2725364252522781e-01  1.2723522793731670e-01  1.2724424932646256e-01  1.2722502496702473e-01  1.2726187344041220e-01  1.2722155339378458e-01  1.2724806291521462e-01  1.2725008824664086e-01  1.2725691187907520e-01  1.2725963917713698e-01  1.2724097233113704e-01  1.2725762652242528e-01  1.2722011260614491e-01  1.2723993859045940e-01  1.2724394160425442e-01  1.2724456069664161e-01  1.2725259536275238e-01  1.2723716219618963e-01  1.2724258543855449e-01  1.2722351928381825e-01  1.2722925255720799e-01  1.2723917723933900e-01  1.2722653631903072e-01  1.2725121168891665e-01  1.2724489274247341e-01  1.2723107652315144e-01  1.2724422245120989e-01  1.2722132083470616e-01  1.2723411477889390e-01  1.2722688825629189e-01  1.2724870497382246e-01  1.2722563657838334e-01  1.2722553034288833e-01  1.2722437495126893e-01  1.2723737740097307e-01  1.2723421725581291e-01  1.2723792640528125e-01  1.2724120131774910e-01  1.2724726754704030e-01  1.2725166812560706e-01  1.2723498559959048e-01  1.2723758121045814e-01  1.2723368023325882e-01  1.2723738180639974e-01  1.2723804760001733e-01  1.2723746317010384e-01  1.2724353918288545e-01  1.2726247769870824e-01  1.2726206565042666e-01  1.2724387848098984e-01  1.2723931798933036e-01  1.2722649524866056e-01  1.2722899248715727e-01  1.2723715282194689e-01  1.2724622817009612e-01  1.2724092894735067e-01  1.2724208490504091e-01  1.2724107350168873e-01  1.2723849280906036e-01  1.2723370541125936e-01  1.2725274519681889e-01  1.2722476705275590e-01  1.2722684477514329e-01  1.2725805304669657e-01  1.2722042848729290e-01  1.2721963117724180e-01  1.2723113709194939e-01  1.2724518136287569e-01  1.2724399076107856e-01  1.2723195092150294e-01  1.2724232185491777e-01  1.2726057213385672e-01  1.2723117767913003e-01  1.2723320490483669e-01  1.2725725182448980e-01  1.2723805666075508e-01  1.2724991358848300e-01  1.2726061351043144e-01  1.2724394928289337e-01  1.2724520820819440e-01  1.2722597671748079e-01  1.2723798603582931e-01  1.2725062805720513e-01  1.2721947180898757e-01  1.2722234682811637e-01  1.2724715106880763e-01  1.2724782154317782e-01  1.2725993800505087e-01  1.2722825570067409e-01  1.2721889031224148e-01  1.2723565236997245e-01  1.2723540672427089e-01  1.2722903221585616e-01  1.2723973051606810e-01  1.2722195776824025e-01  1.2722963655572772e-01  1.2723152317183178e-01  1.2724272688977920e-01  1.2725239099353974e-01  1.2725366599159979e-01  1.2725172611990548e-01  1.2723435775604622e-01  1.2726354689808730e-01  1.2723540154140270e-01  1.2723637383100020e-01  1.2724387439134152e-01  1.2723693694337157e-01  1.2723426663368784e-01  1.2722373670071710e-01  1.2724659057531587e-01  1.2725283120542841e-01  1.2724539508182522e-01  1.2725371916108039e-01  1.2724148652496986e-01  1.2723640694500954e-01  1.2722671090740009e-01  1.2723747028441881e-01  1.2722960444979300e-01  1.2724639926449846e-01  1.2725093353403652e-01  1.2725520834692380e-01  1.2725650581879622e-01  1.2722529717163183e-01  1.2722201390610186e-01  1.2723614444847234e-01  1.2723810863641316e-01  1.2724251250366989e-01  1.2724699792277122e-01  1.2723956432623615e-01  1.2725241182094732e-01  1.2726233464798059e-01  1.2725054807306818e-01  1.2724532300402536e-01  1.2721859937882576e-01  1.2722305964218095e-01  1.2723933793811609e-01  1.2723682969641950e-01  1.2724190053177428e-01  1.2724897939439916e-01  1.2722826834756584e-01  1.2725998536293087e-01  1.2724725087928618e-01  1.2725291236890188e-01  1.2724261963264752e-01  1.2723205401241916e-01  1.2723255213424275e-01  1.2723644585737601e-01  1.2725033190392010e-01  1.2724520423326405e-01  1.2721834342439936e-01  1.2724463812847109e-01  1.2722948083908747e-01  1.2723044911630585e-01  1.2724487097453008e-01  1.2724130144818294e-01  1.2725763949662908e-01  1.2724951553850947e-01  1.2723951571680936e-01  1.2722124431330126e-01  1.2721747681868076e-01  1.2725996086374231e-01  1.2723385887646024e-01  1.2723482353600649e-01  1.2723519579239095e-01  1.2723058005807714e-01  1.2724729675269567e-01  1.2723818925473629e-01  1.2724044235958420e-01  1.2723213816040288e-01  1.2725991694245742e-01  1.2726358817092134e-01  1.2724104831558897e-01  1.2722414616128230e-01  1.2722794847510441e-01  1.2724936301797343e-01  1.2722955596317392e-01  1.2723090091841713e-01  1.2724918336755822e-01  1.2725629114362724e-01  1.2725335422107581e-01  1.2724783018789596e-01  1.2725181795887219e-01  1.2725508534958704e-01  1.2722366501836102e-01  1.2722591497042757e-01  1.2723188446039732e-01  1.2724191576822305e-01  1.2725075499180416e-01  1.2724443587609677e-01  1.2724700192261854e-01  1.2724699505003678e-01  1.2724353134040026e-01  1.2724215443192230e-01  1.2724321254507878e-01  1.2722576520645212e-01  1.2724126664947991e-01  1.2723585713367261e-01  1.2726026479182539e-01  1.2723999319178728e-01  1.2725852200517146e-01  1.2722924014978682e-01  1.2722470271060324e-01  1.2726255449523166e-01  1.2721837592961574e-01  1.2721983102181975e-01  1.2723708839655215e-01  1.2725093312659333e-01  1.2722977747685574e-01  1.2721929762039833e-01  1.2722236749651342e-01  1.2722372316403041e-01  1.2725591356190230e-01  1.2723818243767349e-01  1.2723598519033763e-01  1.2724195044317896e-01  1.2723427538401880e-01  1.2724543362549862e-01  1.2725494874132512e-01  1.2722534462507709e-01  1.2724262245541837e-01  1.2722556506057447e-01  1.2723159482806023e-01  1.2722125015345287e-01  1.2723888358500082e-01  1.2725187980800620e-01  1.2723264833384887e-01  1.2723194649524699e-01  1.2722170899568064e-01  1.2724110305320721e-01  1.2723804914352704e-01  1.2724062439030140e-01  1.2723540563280231e-01  1.2723712622040276e-01  1.2721724138642293e-01  1.2721873281106602e-01  1.2722722054781410e-01  1.2723327390822867e-01  1.2723298989305762e-01  1.2723969490871020e-01  1.2724035173661122e-01  1.2723831957483139e-01  1.2721789227141558e-01  1.2722002642647570e-01  1.2724187946212406e-01  1.2723308017712023e-01  1.2722623129384070e-01  1.2722861420503814e-01  1.2724959824926618e-01  1.2722626490463787e-01  1.2725020733636705e-01  1.2724966906502524e-01  1.2725068919301155e-01  1.2723339707622172e-01  1.2724312242059405e-01  1.2723913775529247e-01  1.2721769829063023e-01  1.2725670460237107e-01  1.2725812449488502e-01  1.2725390668128841e-01  1.2724555322568581e-01  1.2722530508826332e-01  1.2724149143551261e-01  1.2724030109746795e-01  1.2724316065416860e-01  1.2724644873757851e-01  1.2722794943605925e-01  1.2724536777616796e-01  1.2725305583116961e-01  1.2722330586550731e-01  1.2722464755997176e-01  1.2724155491791675e-01  1.2724054039446853e-01  1.2725793667370505e-01  1.2726080358764391e-01  1.2722691494724570e-01  1.2723916267305205e-01  1.2724303705125908e-01  1.2723240845982270e-01  1.2725036220961319e-01  1.2723246615453540e-01  1.2721757663794839e-01  1.2721560936716395e-01  1.2724073233190875e-01  1.2725214437294513e-01  1.2721553799436144e-01  1.2721741736553369e-01  1.2721797852215450e-01  1.2722332399523076e-01  1.2721718528835183e-01  1.2724338502698967e-01  1.2725249449556739e-01  1.2726040413454193e-01  1.2722538263171262e-01  1.2725380088313021e-01  1.2726400823413275e-01  1.2726394440705616e-01  1.2721570481775565e-01  1.2722803550133951e-01  1.2725936275291802e-01  1.2723415544376743e-01  1.2725990058311085e-01  1.2722685655143640e-01  1.2723630712000822e-01  1.2722787147118414e-01  1.2721551066017578e-01  1.2721579003429076e-01  1.2721981895244913e-01  1.2722012922240861e-01  1.2721705570933983e-01  1.2721742375069756e-01  1.2721526991744000e-01  1.2723377939115568e-01  1.2722592028008811e-01  1.2724524419541378e-01  1.2724543911854896e-01  1.2725975022014560e-01  1.2725668129102996e-01  1.2726018751554977e-01  1.2724254795838211e-01  1.2722144278599942e-01  1.2725040839958343e-01  1.2723574891401426e-01  1.2726055831191238e-01  1.2726344376001189e-01  1.2726353174837965e-01  1.2722143706838310e-01  1.2721965208956898e-01  1.2724238811577776e-01  1.2723588236557107e-01  1.2725390181936441e-01  1.2723991027553888e-01  1.2723898150920268e-01  1.2725758516676403e-01  1.2723876487583149e-01  1.2723995767954105e-01  1.2723685557385472e-01  1.2724524459135012e-01  1.2723864128732948e-01  1.2723932964373647e-01  1.2724029944055262e-01  1.2723468299995677e-01  1.2724850261015067e-01  1.2724014949394816e-01  1.2724540946993323e-01  1.2723803300045200e-01  1.2722285575237510e-01  1.2722888011338357e-01  1.2722437992722740e-01  1.2721938615105921e-01  1.2725923235598435e-01  1.2724252545668188e-01  1.2723504163277438e-01  1.2722005351526078e-01  1.2722240604289059e-01  1.2723890025129173e-01  1.2726008732869082e-01  1.2721790278139677e-01  1.2722590681674809e-01  1.2724467927995053e-01  1.2726071833677038e-01  1.2722872432207516e-01  1.2723810389289752e-01  1.2724582207590043e-01  1.2725493129821916e-01  1.2724157288028479e-01  1.2722091679286185e-01  1.2723647874783098e-01  1.2723385839607593e-01  1.2723023441925765e-01  1.2724850860552533e-01  1.2724112828847101e-01  1.2723192770871475e-01  1.2724553524268201e-01  1.2723855046064603e-01  1.2724928557385731e-01  1.2722872587388856e-01  1.2724575598636231e-01  1.2722943019551039e-01  1.2722916364603448e-01  1.2723499520002990e-01  1.2722852924312886e-01  1.2721940920076993e-01  1.2724016870316854e-01  1.2723905848133915e-01  1.2723881497394823e-01  1.2724205713051825e-01  1.2724033416395550e-01  1.2722084022375185e-01  1.2724911722410137e-01  1.2724339354578409e-01  1.2723611449830777e-01  1.2725882339261241e-01  1.2725884733875073e-01  1.2723976785116262e-01  1.2724003421538718e-01  1.2725205590653235e-01  1.2721924619965261e-01  1.2724816674330094e-01  1.2723112893014210e-01  1.2723565168823725e-01  1.2723637591304829e-01  1.2724539550333117e-01  1.2724477391731312e-01  1.2724748588410364e-01  1.2722626180751750e-01  1.2725287232214202e-01  1.2723730251129139e-01  1.2724356568570769e-01  1.2722593083884678e-01  1.2723837963008341e-01  1.2723990987420061e-01  1.2722744455690935e-01  1.2725501802799330e-01  1.2722267944613441e-01  1.2726004518623590e-01  1.2722073222705826e-01  1.2725256018112002e-01  1.2725470159092661e-01  1.2724442906391759e-01  1.2723331837219060e-01  1.2723361311402226e-01  1.2723492324973640e-01  1.2723084715395272e-01  1.2724577813386098e-01  1.2724336062020020e-01  1.2724677691895644e-01  1.2725444922482113e-01  1.2725324313486591e-01  1.2725448533502762e-01  1.2723539153219068e-01  1.2723117011976356e-01  1.2725743544016258e-01  1.2723036821562461e-01  1.2726297846873166e-01  1.2724242805086144e-01  1.2722920736215687e-01  1.2723521686031430e-01  1.2723697066472181e-01  1.2724851111707655e-01  1.2725510908036611e-01  1.2723120128246226e-01  1.2723738757216893e-01  1.2724078142363934e-01  1.2724373239391334e-01  1.2725924170193520e-01  1.2723691443383989e-01  1.2724366827604466e-01  1.2724070194453255e-01  1.2725415794086709e-01  1.2725108549066660e-01  1.2723839705296200e-01  1.2725361238127370e-01  1.2724039062388909e-01  1.2722475542906264e-01  1.2724906167940270e-01  1.2724933934349214e-01  1.2725333115266643e-01  1.2725432670908191e-01  1.2724979072698939e-01  1.2723949619098976e