<?xml version="1.0"?>
<VTKFile type="UnstructuredGrid"  version="0.1"  >
<UnstructuredGrid>
<Piece  NumberOfPoints="1380" NumberOfCells="2630">
<Points>
<DataArray  type="Float64"  NumberOfComponents="3"  format="ascii">-1 -1 0  1 -1 0  1 1 0  -1 1 0  0 -1 0  1 0 0  0 1 0  -1 0 0  0 0 0  -1 -0.5 0  -0.5 -1 0  -0.5 1 0  -1 0.5 0  1 -0.5 0  0.5 -1 0  1 0.5 0  0.5 1 0  0.4166666666666666 -0.4166666666666667 0  -0.4166666666666667 0.4166666666666667 0  -0.25 -0.5 0  0.5 0.25 0  -0.4861111111111112 -0.06944444444444445 0  0.0732758620689655 0.507183908045977 0  -0.625 -0.625 0  0.625 0.625 0  0.7380952380952381 -0.25 0  -0.7099116161616161 0.2105429292929293 0  -0.25 0.7380952380952381 0  0.105392156862745 -0.6348039215686275 0  0.6770833333333334 -0.6770833333333333 0  -0.6770833333333334 0.6770833333333334 0  0.3472222222222222 -0.06944444444444446 0  -0.7264957264957265 -0.3044871794871795 0  0.3141940982507127 0.7297313660835709 0  0.02049587951122483 -0.3227479397556124 0  -0.2690972222222223 0.1475694444444444 0  0.3859500089908372 -0.7274430156831472 0  -0.2228477945123298 -0.1761765495248019 0  0.2182539682539683 0.1884920634920635 0  0.75 0.375 0  -0.145442219440968 -0.7602211097204841 0  0.7088913690476191 0.0427827380952381 0  -0.75 -1 0  -1 -0.75 0  1 0.75 0  0.75 1 0  -0.7439982703698937 -0.04614153195464455 0  -0.4609235096577606 -0.3356498099556895 0  0.4063134471431929 0.4895621842856023 0  0.25 -1 0  -0.25 -1 0  -0.75 1 0  0.75 -1 0  -1 -0.25 0  -1 0.25 0  1 -0.25 0  -0.25 1 0  1 -0.75 0  -1 0.75 0  0.25 1 0  1 0.25 0  -0.4041423272138783 -0.7597141090712928 0  0.06500839607911253 0.7578103030529481 0  -0.1572801182352047 0.3838997021864289 0  -0.6528005242053915 0.4409494757946086 0  -0.4930160984848485 0.1544744318181818 0  -0.4732142857142858 0.7752976190476191 0  0.6398809523809523 -0.4538690476190476 0  0.5166054117396399 -0.2161233620965164 0  -0.002273787244753427 0.2232363985975174 0  0.1500564496765022 -0.1524955293952667 0  0.2016720420046758 -0.4410343282803009 0  -0.08495178036419618 0.6274139771124571 0  -0.8367311471133162 0.3642591720794645 0  -0.8333333333333334 -0.625 0  -0.594323836800685 -0.8231079456002283 0  -0.4466957714776065 -0.5349126855671806 0  0.8125 0.5625 0  0.78125 0.78125 0  0.5091392650016769 0.7947130883338923 0  0.125 -0.8382681931833136 0  -0.8184523809523809 -0.8184523809523809 0  -0.07781530426104531 -0.5819319697006881 0  0.5085055196703295 0.04967610411902112 0  0.2918471072074933 -0.276017202318847 0  0.5120763537765269 -0.5898771553229597 0  0.625 -0.8585349462365591 0  0.8158532234335381 -0.8158532234335381 0  -0.5198088446315396 0.5739411553684605 0  -0.8585349462365591 0.625 0  -0.8150493805516597 0.8156205699829586 0  0.8585349462365591 -0.625 0  -0.2688268348649726 0.5439331383603209 0  0.8242100426758139 -0.4436043596336612 0  0.5833756314287952 0.4479378157143976 0  0.8690476190476191 -0.125 0  -0.125 0.8690476190476191 0  -0.8692745600729823 0.125 0  0.8696725120759167 0.125 0  -0.625 0.8711516477451908 0  0.2339522463269718 0.3879558377955778 0  0.2453709502295031 0.5655822922838026 0  0.1730610651637797 0.02021709580868947 0  0.3245402594056757 -0.5644672020485209 0  -0.7291666666666666 -0.4816595441595442 0  -1 -0.375 0  -0.5811140848639904 -0.2127276307675001 0  0.673332592838314 0.2158348143233718 0  0.375 1 0  -0.5714768890989919 0.2985103444040069 0  -1 -0.125 0  -0.8453692574786325 -0.1875 0  -0.3144549134065865 -0.02408675326008025 0  -0.2898414972096258 -0.3336092734780093 0  -0.1075052092206287 -0.4224330421314983 0  -0.05043970703604117 -0.1652278959397459 0  0.6459672950297897 -0.1113415301525317 0  0.4645210271029513 0.6398480556579343 0  0.3512863754411909 0.0937979496253573 0  -0.6063160985568274 0.03891469652249891 0  -0.3428819444444445 0.8690476190476191 0  0.625 1 0  -0.1602164796159982 0.02697860906625157 0  0.04648110064133829 -0.4808416424239687 0  1 0.875 0  -0.3836102479201657 0.6484936449177356 0  -0.3776011723096096 0.263078478984336 0  -0.6024978259969829 -0.3949628096211138 0  0.125 1 0  0.2010781308272777 0.8456221018461906 0  0.2822509696388829 -0.845902544691141 0  -0.3285533674953515 -0.6289773550938936 0  0.3461306793221754 0.278777492464833 0  0.4737475672408696 -0.8508448959534423 0  0.2384632828836344 -0.7029523187242811 0  -0.004777287059791593 0.3759269695907358 0  -0.8499735021850066 -0.3912320205328522 0  0.1222536293721587 0.2963971539625205 0  -0.3769456520999688 -0.203572526805711 0  -0.2749617205755651 -0.8464290792698902 0  0.004805888512766143 -0.747174355248311 0  -0.125 -1 0  -0.06001061822252458 -0.8724007765244854 0  0.875 0.4375 0  0.854421179608893 0.271342359217786 0  0.875 1 0  -0.1499861095763589 0.2358309656934888 0  0.3381943639137225 0.8663061796405532 0  -0.7853090110442228 0.4998412775277108 0  0.7398165998560814 -0.5535192694951373 0  0.1580042122341573 -0.3100246140259917 0  -0.7291666666666667 -0.7142857142857142 0  -0.375 -1 0  0.6483368386154684 0.8514905990110488 0  -0.1295370103291928 -0.2826118305021242 0  0.07458201853700455 0.1123894386563915 0  0.6146465857036327 -0.3161203659316075 0  0.5551898493894731 -0.740296118159085 0  0.375 -1 0  0.482702798370208 -0.084133350091034 0  0.87890625 0.68359375 0  -0.05917195534525846 0.4971092425697621 0  0.1260710309213975 0.6343750312956699 0  0.8690476190476191 -0.3077066815262848 0  -0.2912010232560567 0.3668168386732139 0  -0.875 1 0  -1 0.875 0  1 -0.875 0  0.875 -1 0  -0.8689564281364567 -0.006189266075306407 0  -0.7449425635110547 0.08458938160051771 0  -0.7150266761936593 -0.1739444581417552 0  -0.5260034831318311 -0.711099823962112 0  -0.4724626808827322 -0.871722230709409 0  0.4734436795977052 0.377714794132168 0  -0.875 -1 0  -1 -0.875 0  0.6927189078571988 0.5156567235715964 0  -0.3742497615796874 -0.4296005251260107 0  -0.1969436423297711 -0.6387157229772615 0  -0.6179496409766825 -0.08933356056510935 0  -0.424405057115988 0.04452428810878029 0  -0.08479048335844169 0.1279607007132633 0  0.003830300099055113 0.8712085230656206 0  0.8748778838820267 -1.379218479898026e-05 0  -0.375 1 0  -0.625 1 0  1 0.125 0  -0.125 1 0  1 -0.375 0  1 -0.125 0  1 -0.625 0  0.625 -1 0  0.125 -1 0  -0.625 -1 0  -1 -0.625 0  -1 0.125 0  -1 0.375 0  -1 0.625 0  1 0.375 0  1 0.625 0  0.6325660748712082 0.3335187599557389 0  -0.06420945895056573 0.7549874027425891 0  -0.8769015540914771 0.2478802253893416 0  0.871875 0.871875 0  -0.6868091492840067 0.3270978624973681 0  -0.5363597469565949 0.412994850055505 0  -0.6803734992638302 0.5574295000651103 0  -0.7076253581162534 -0.8803439094224437 0  -0.8778089002295137 -0.5106896447504627 0  -0.3860184984222981 0.530566778071246 0  0.6109900617121508 0.1128453077697081 0  0.3896945134930274 -0.1915382873255086 0  0.7605656944697778 -0.06822134873122943 0  0.3576151269893478 0.5948388411612135 0  -0.5689902680792265 -0.5143596830118065 0  0.6262446286847614 -0.5735657901943212 0  0.2030558252325225 -0.5625263842513452 0  0.6123273142928579 0.7407533260723429 0  0.4016460890123554 -0.3042863223111857 0  -0.59039693199147 0.7578418819188018 0  0.7276932493917544 -0.3705808024528924 0  0.5222536818742854 -0.4713886230400014 0  -0.5101986527137737 0.8848365765607674 0  0.510560172809238 0.5356013299918891 0  -0.3603569195756083 0.75823710606415 0  0.1967279277813232 0.728226870058472 0  -0.6086880986371127 0.1545624071548516 0  -0.38105366729386 0.1511189987807864 0  -0.2944659463671584 -0.7359061804869591 0  0.5060729154966499 -0.3475227845833823 0  -0.09281616240412746 -0.06197858250969457 0  0.7649739583333334 0.6673177083333334 0  0.7628906249999999 0.890234375 0  -0.2666864184909611 0.2585504071132311 0  0.3635064892129658 0.3878003602709461 0  -0.2339409722222222 0.8901937905844155 0  -0.1718792125974916 -0.8957733325456778 0  0.1001768566329531 0.4023510017391879 0  0.3120260172693757 -0.4540546875576884 0  0.7804062804433681 0.1896628610854537 0  0.4087715451998049 0.187961780041608 0  -0.1584963477271457 0.5451611892421655 0  -0.8926817849258324 0.463022006336401 0  0.2338091473445219 -0.07576267331277289 0  0.08171112182813692 -0.2349087687359925 0  0.04635385178956847 -0.1044635073718474 0  -0.4377391632114205 -0.6448874471423088 0  -0.1907678351227189 0.6480215912813945 0  0.300605946475244 0.4741444604171038 0  -0.2145033720757486 -0.06751709909419711 0  0.6069191921170397 -0.005492331448357812 0  0.0214718770761248 0.6032397936031719 0  0.5476675683364878 0.8992752415326501 0  0.4387475014316537 0.9093708953002239 0  -0.4932997685306436 -0.4381009159993523 0  0.2515197695339056 -0.1791673369138964 0  -0.7291666666666667 -0.6088789682539681 0  -0.9166666666666667 -0.6875 0  0.620579540363709 -0.2122431523583302 0  -0.484950136419973 0.6719440339397442 0  0.2857044415400258 0.0137589173127316 0  -0.8945708364098356 -0.288306105327986 0  0.4043102720140535 0.7842914560451557 0  0.04123256238752064 -0.9026968245801402 0  0.2003676884403109 -0.9091888601740487 0  0.1068775558538842 -0.7373377130403223 0  -0.4804566783514427 -0.1763307203045643 0  0.108286342087769 -0.3993789328997278 0  -0.191883080105361 -0.3640821726430649 0  -0.07025064492006244 0.2984876656890053 0  -0.7039324641409584 0.788312126296613 0  -0.7311286585775438 0.8932502354831682 0  0.5171409396884947 0.1503852691889257 0  0.4229392823658633 -0.003216522184234835 0  -0.5621736087218259 -0.919558629836806 0  -0.626474064879544 -0.7266572613636506 0  0.2446828746617422 0.2867616783302419 0  0.1759429608742923 0.4776611759306416 0  -0.3468240303741654 -0.5260416435617549 0  -0.7465808808425306 0.4069574477998361 0  -0.7819962170660292 0.2802441065650652 0  -0.3742623214119594 -0.8547800509641984 0  0.1014498009713561 0.8506721983266377 0  0.4285217620918213 -0.5230190595570253 0  0.4091738370487775 -0.6256346204225141 0  0.78125 0.46875 0  0.90625 0.53125 0  -0.4791801348852565 0.2553992655702126 0  0.7843318610782772 -0.7086046956885941 0  0.8909728264971901 -0.7355183796514634 0  0.7041908166528879 -0.7830649143180282 0  0.7311821352
[...]
<PointData  Vectors="f_22"> 
<DataArray  type="Float64"  Name="f_22"  NumberOfComponents="3" format="ascii">-2.7416320026539638e-03 -2.7934903775796390e-03 0.0000000000000000e+00  -2.7416320026539638e-03 -2.7934903775796390e-03 0.0000000000000000e+00  -2.7416320026539638e-03 -2.7934903775796390e-03 0.0000000000000000e+00  -2.7416320026539638e-03 -2.7934903775796390e-03 0.0000000000000000e+00  -2.7403450765670257e-03 -3.0108109557998967e-03 0.0000000000000000e+00  -2.9787484036538753e-03 -2.7918666932558135e-03 0.0000000000000000e+00  -2.7403450765670257e-03 -3.0108109557998967e-03 0.0000000000000000e+00  -2.9787484036538753e-03 -2.7918666932558135e-03 0.0000000000000000e+00  -2.9799564978234016e-03 -3.0124389675661766e-03 0.0000000000000000e+00  -4.2592747081382151e-04 -2.7925914398527077e-03 0.0000000000000000e+00  -2.7409619064103588e-03 -4.6817049461547657e-04 0.0000000000000000e+00  -2.7409619064103588e-03 -4.6817049461547657e-04 0.0000000000000000e+00  -5.2944784673630823e-03 -2.7925446114181571e-03 0.0000000000000000e+00  -4.2592747081382151e-04 -2.7925914398527077e-03 0.0000000000000000e+00  -2.7408729148125192e-03 -5.3362617920444493e-03 0.0000000000000000e+00  -5.2944784673630823e-03 -2.7925446114181571e-03 0.0000000000000000e+00  -2.7408729148125192e-03 -5.3362617920444493e-03 0.0000000000000000e+00  -5.3908331863303423e-04 -5.2811365282238237e-03 0.0000000000000000e+00  -5.2416581542526946e-03 -5.7892907200599725e-04 0.0000000000000000e+00  -4.2652690430254917e-04 -1.2588679008600542e-03 0.0000000000000000e+00  -4.6662692454852179e-03 -5.3366602953362477e-03 0.0000000000000000e+00  -2.4499128226953141e-03 -4.7541311446463969e-04 0.0000000000000000e+00  -5.2912771573541415e-03 -3.5643857338929601e-03 0.0000000000000000e+00  -5.6646694041702047e-04 -6.1226410901919217e-04 0.0000000000000000e+00  -5.0642698948397888e-03 -5.1096646427026401e-03 0.0000000000000000e+00  -1.2225331740388602e-03 -4.6111360101275074e-03 0.0000000000000000e+00  -4.4489032206238817e-03 -9.1072466326161904e-04 0.0000000000000000e+00  -4.5627127549276066e-03 -1.2578326821725341e-03 0.0000000000000000e+00  -5.9154364818329581e-04 -3.7965202023645295e-03 0.0000000000000000e+00  -7.2967981373477249e-04 -4.9109754245619461e-03 0.0000000000000000e+00  -4.8639162564560181e-03 -7.7715711614920733e-04 0.0000000000000000e+00  -2.4499288764354187e-03 -5.1120336687740710e-03 0.0000000000000000e+00  -9.3975202888827228e-04 -9.8746051231336156e-04 0.0000000000000000e+00  -4.6090398474714200e-03 -4.9936553492274010e-03 0.0000000000000000e+00  -8.5693447960695024e-04 -3.1684850104467840e-03 0.0000000000000000e+00  -4.0554959280521066e-03 -1.1538878920452709e-03 0.0000000000000000e+00  -9.4247707836899158e-04 -5.2194919549752583e-03 0.0000000000000000e+00  -1.6826660638837347e-03 -1.4183872294671208e-03 0.0000000000000000e+00  -4.3184596875859146e-03 -4.5288659182664299e-03 0.0000000000000000e+00  -5.1551198038235465e-03 -4.5461346872960511e-03 0.0000000000000000e+00  -1.1080465048880057e-03 -1.9263069534554429e-03 0.0000000000000000e+00  -3.3042176003925464e-03 -4.7633461830616838e-03 0.0000000000000000e+00  -2.7413731299696276e-03 -1.1043257438746307e-03 0.0000000000000000e+00  -1.0551779393739508e-03 -2.7932011560020996e-03 0.0000000000000000e+00  -4.4975738649266480e-03 -2.7931328982597307e-03 0.0000000000000000e+00  -2.7413842273960052e-03 -4.5463529062031603e-03 0.0000000000000000e+00  -2.6261352453912676e-03 -1.0724951946678785e-03 0.0000000000000000e+00  -8.0275805058742161e-04 -5.0046554035925090e-04 0.0000000000000000e+00  -5.2977925774402301e-03 -5.2639319802320035e-03 0.0000000000000000e+00  -2.7404927951093765e-03 -4.7002245126290133e-03 0.0000000000000000e+00  -2.7405008680552461e-03 -1.2579377483563229e-03 0.0000000000000000e+00  -2.7413731299696276e-03 -1.1043257438746307e-03 0.0000000000000000e+00  -2.7413842273960052e-03 -4.5463529062031603e-03 0.0000000000000000e+00  -1.2226942241872507e-03 -2.7921035785834314e-03 0.0000000000000000e+00  -4.6653013541228866e-03 -2.7920592173929907e-03 0.0000000000000000e+00  -1.2226942241872507e-03 -2.7921035785834314e-03 0.0000000000000000e+00  -2.7405008680552461e-03 -1.2579377483563229e-03 0.0000000000000000e+00  -1.0551779393739508e-03 -2.7932011560020996e-03 0.0000000000000000e+00  -4.4975738649266480e-03 -2.7931328982597307e-03 0.0000000000000000e+00  -2.7404927951093765e-03 -4.7002245126290133e-03 0.0000000000000000e+00  -4.6653013541228866e-03 -2.7920592173929907e-03 0.0000000000000000e+00  -1.1059540061543211e-03 -6.1039310754983306e-04 0.0000000000000000e+00  -4.4519840777443517e-03 -3.5026181145086026e-03 0.0000000000000000e+00  -5.1767013975469039e-03 -1.8442944219420939e-03 0.0000000000000000e+00  -5.2739612283920576e-03 -6.9203676340930077e-04 0.0000000000000000e+00  -4.1008963887406956e-03 -4.7087395372009857e-04 0.0000000000000000e+00  -4.3479065484035460e-03 -4.8555290712900845e-04 0.0000000000000000e+00  -4.6793588369856246e-04 -5.0576178888193163e-03 0.0000000000000000e+00  -1.4238457201376077e-03 -5.3267558710678054e-03 0.0000000000000000e+00  -4.5223838447334642e-03 -2.9949671447050030e-03 0.0000000000000000e+00  -1.8442319850494558e-03 -4.1057005002131455e-03 0.0000000000000000e+00  -4.8919064222867825e-04 -4.4313197519107112e-03 0.0000000000000000e+00  -5.0550550738950751e-03 -2.3654672809684876e-03 0.0000000000000000e+00  -5.1252046237373625e-03 -1.6116192749924879e-03 0.0000000000000000e+00  -5.6625282855804981e-04 -1.5910020272669146e-03 0.0000000000000000e+00  -1.4753943723578302e-03 -5.4285773211897427e-04 0.0000000000000000e+00  -4.2832042787430862e-04 -5.2106213075702758e-04 0.0000000000000000e+00  -5.2249765001659782e-03 -4.1637645259819190e-03 0.0000000000000000e+00  -4.3129663181576761e-03 -4.3622867577121213e-03 0.0000000000000000e+00  -4.2287396782489921e-03 -5.3324759828973318e-03 0.0000000000000000e+00  -1.5710719915707130e-03 -3.9341418144741578e-03 0.0000000000000000e+00  -1.4462939811615866e-03 -1.4967132618777118e-03 0.0000000000000000e+00  -4.7586160165473764e-04 -2.4192921326026337e-03 0.0000000000000000e+00  -3.3565017911469965e-03 -5.3324971016552513e-03 0.0000000000000000e+00  -1.0810642096510720e-03 -4.9006693608995948e-03 0.0000000000000000e+00  -4.8834610308853322e-04 -5.3297014804132873e-03 0.0000000000000000e+00  -1.7058493071539071e-03 -5.1090032762979585e-03 0.0000000000000000e+00  -1.4296067754108268e-03 -4.1416184926006024e-03 0.0000000000000000e+00  -5.2007689068352889e-03 -4.6549004393260586e-04 0.0000000000000000e+00  -5.0634035270362863e-03 -1.7567855065447014e-03 0.0000000000000000e+00  -4.0929651496566391e-03 -1.4750722326251893e-03 0.0000000000000000e+00  -5.6555189697534921e-04 -3.8496375237387199e-03 0.0000000000000000e+00  -5.2541932000871802e-03 -1.1546333278167138e-03 0.0000000000000000e+00  -4.8455076617933042e-04 -4.0852182460678768e-03 0.0000000000000000e+00  -5.2820798343806543e-03 -5.2253612968190429e-03 0.0000000000000000e+00  -2.0380584298172692e-03 -3.7742966937076550e-03 0.0000000000000000e+00  -3.7235964197182875e-03 -2.0710921719670765e-03 0.0000000000000000e+00  -3.9011937740508367e-03 -1.8291870451059003e-03 0.0000000000000000e+00  -3.9014186881527152e-03 -3.7700536040068803e-03 0.0000000000000000e+00  -3.7090541390315630e-03 -6.1164186590928883e-04 0.0000000000000000e+00  -5.1869337016765228e-03 -4.6162224796653453e-03 0.0000000000000000e+00  -5.2190028552720081e-03 -4.6770378907107770e-03 0.0000000000000000e+00  -3.1342674879138205e-03 -4.2557946028254686e-03 0.0000000000000000e+00  -4.5098434755862384e-04 -5.0325348976301030e-03 0.0000000000000000e+00  -4.3742923274475172e-04 -1.0005265360780911e-03 0.0000000000000000e+00  -6.5657330841864211e-04 -2.7922984644111028e-03 0.0000000000000000e+00  -1.4456683231660807e-03 -5.1939298007757750e-04 0.0000000000000000e+00  -4.4801804568596511e-03 -4.9274392715186847e-03 0.0000000000000000e+00  -2.7406671657948896e-03 -5.1925982357124163e-03 0.0000000000000000e+00  -4.8927174239372529e-03 -5.0426978229662798e-04 0.0000000000000000e+00  -2.0381367634733634e-03 -2.7918656937279394e-03 0.0000000000000000e+00  -1.6065646514028941e-03 -1.6684678920042251e-03 0.0000000000000000e+00  -2.7954855515793233e-03 -9.3087183979399292e-04 0.0000000000000000e+00  -8.1124791406210104e-04 -1.0475625904760423e-03 0.0000000000000000e+00  -5.2701479362410124e-04 -2.1994285102206390e-03 0.0000000000000000e+00  -1.7567183986481934e-03 -2.6269124340432670e-03 0.0000000000000000e+00  -2.1374587874223973e-03 -5.0356589288042377e-03 0.0000000000000000e+00  -5.0131965951108158e-03 -5.3338192046729887e-03 0.0000000000000000e+00  -3.6817443506741766e-03 -5.1252237592587643e-03 0.0000000000000000e+00  -3.2751548818785031e-03 -5.6642571354121002e-04 0.0000000000000000e+00  -3.7236439900437432e-03 -8.1003019191293118e-04 0.0000000000000000e+00  -2.7410842780493491e-03 -5.1093335101051870e-03 0.0000000000000000e+00  -3.1855546042051544e-03 -1.8247236561296451e-03 0.0000000000000000e+00  -4.3745576220477483e-04 -3.3647310703202580e-03 0.0000000000000000e+00  -3.6821322855826880e-03 -2.7933005857680030e-03 0.0000000000000000e+00  -4.9798108173488356e-03 -6.6762153886697510e-04 0.0000000000000000e+00  -4.7310950777196817e-03 -6.8677020342337435e-04 0.0000000000000000e+00  -5.9652871989753008e-04 -5.5912607428385724e-04 0.0000000000000000e+00  -2.7403945520320630e-03 -3.9340495487202622e-03 0.0000000000000000e+00  -3.8893349071128414e-03 -4.4274646713864784e-03 0.0000000000000000e+00  -1.6210922324171350e-03 -4.8571728506955365e-03 0.0000000000000000e+00  -5.7663418751518981e-04 -8.6920644605966118e-04 0.0000000000000000e+00  -4.8068938935810967e-03 -5.1088979251994867e-03 0.0000000000000000e+00  -1.6539845912078423e-03 -5.3366587944556265e-03 0.0000000000000000e+00  -8.3249352380273525e-04 -4.6393810591670798e-03 0.0000000000000000e+00  -5.1573680098694220e-03 -2.9754916303835325e-03 0.0000000000000000e+00  -6.0673812007662345e-04 -1.6995453422752309e-03 0.0000000000000000e+00  -4.8849457841610476e-03 -3.9164634764191552e-03 0.0000000000000000e+00  -1.5036374884720527e-03 -6.8962572872975224e-04 0.0000000000000000e+00  -1.6252358188564133e-03 -1.1223984833107282e-03 0.0000000000000000e+00  -1.0397613456234410e-03 -3.0478360572954448e-03 0.0000000000000000e+00  -2.7403650945357029e-03 -2.0711411344796170e-03 0.0000000000000000e+00  -1.8000627474259003e-03 -2.5528281063817685e-03 0.0000000000000000e+00  -5.2711281553282320e-03 -3.7325625093059278e-03 0.0000000000000000e+00  -4.7712310557296777e-03 -3.8784569696174893e-03 0.0000000000000000e+00  -2.7415137903796724e-03 -3.7331083732597223e-03 0.0000000000000000e+00  -4.5913114720738035e-03 -1.8951998329816886e-03 0.0000000000000000e+00  -3.7439836953349938e-03 -5.0816764044597541e-03 0.0000000000000000e+00  -5.2940206372126689e-03 -1.2961699471426673e-03 0.0000000000000000e+00  -4.3982458477806832e-04 -4.6020292506347574e-03 0.0000000000000000e+00  -9.1382432031288823e-04 -4.1579652498692846e-03 0.0000000000000000e+00  -8.8353356417929848e-04 -1.0007969146171069e-03 0.0000000000000000e+00  -2.7407120793513937e-03 -6.9505410836054901e-04 0.0000000000000000e+00  -3.8491489137599233e-03 -5.0280129918361931e-03 0.0000000000000000e+00  -1.0476624743846472e-03 -2.0399962010230967e-03 0.0000000000000000e+00  -3.8144121901553425e-03 -3.5745597560300239e-03 0.0000000000000000e+00  -8.8538813682513908e-04 -5.1407094852171887e-03 0.0000000000000000e+00  -1.0049868571181434e-03 -5.2804616037133425e-03 0.0000000000000000e+00  -2.7406671657948896e-03 -5.1925982357124163e-03 0.0000000000000000e+00  -2.3391423534224734e-03 -5.3384626712614158e-03 0.0000000000000000e+00  -4.8361583722052147e-03 -3.7048349361021873e-03 0.0000000000000000e+00  -5.2952543269433718e-03 -2.5598983438701569e-03 0.0000000000000000e+00  -5.0318855781345392e-03 -3.9422069846022957e-03 0.0000000000000000e+00  -9.2386777875320166e-04 -3.7743453860643109e-03 0.0000000000000000e+00  -5.1325179873724959e-03 -1.0398948631736625e-03 0.0000000000000000e+00  -2.7415725352674314e-03 -1.8703872836506278e-03 0.0000000000000000e+00  -3.6821322855826880e-03 -2.7933005857680030e-03 0.0000000000000000e+00  -1.8191756913894231e-03 -2.7934201871740679e-03 0.0000000000000000e+00  -2.7415137903796724e-03 -3.7331083732597223e-03 0.0000000000000000e+00  -2.9314752983510602e-03 -1.8271559920630229e-03 0.0000000000000000e+00  -3.6140393693723121e-03 -1.0770938494749182e-03 0.0000000000000000e+00  -1.6969649631987376e-03 -9.3417321684615014e-04 0.0000000000000000e+00  -8.6924889246022777e-04 -4.6791124442602196e-04 0.0000000000000000e+00  -1.7963448724496367e-03 -4.8691730036230357e-04 0.0000000000000000e+00  -5.1624201653096011e-03 -5.3374897247527101e-03 0.0000000000000000e+00  -2.7415725352674314e-03 -1.8703872836506278e-03 0.0000000000000000e+00  -1.8191756913894231e-03 -2.7934201871740679e-03 0.0000000000000000e+00  -5.2863094416966128e-03 -4.8417630557274407e-03 0.0000000000000000e+00  -5.1212860370185710e-04 -6.9836434887016598e-04 0.0000000000000000e+00  -6.0338507678134356e-04 -1.5797189589961851e-03 0.0000000000000000e+00  -2.3004754366659727e-03 -5.9361481459045207e-04 0.0000000000000000e+00  -3.3177103753529425e-03 -5.6233858482184103e-04 0.0000000000000000e+00  -3.9228946974951941e-03 -2.3677781829954140e-03 0.0000000000000000e+00  -3.7081353043615169e-03 -3.0402123074558260e-03 0.0000000000000000e+00  -2.9786741792547241e-03 -3.7325592329056634e-03 0.0000000000000000e+00  -2.7407120793513937e-03 -6.9505410836054901e-04 0.0000000000000000e+00  -2.7411275720222407e-03 -6.1190598315056795e-04 0.0000000000000000e+00  -3.9012220478364915e-03 -2.7919431115565347e-03 0.0000000000000000e+00  -2.7403650945357029e-03 -2.0711411344796170e-03 0.0000000000000000e+00  -6.5657330841864211e-04 -2.7922984644111028e-03 0.0000000000000000e+00  -2.0381367634733634e-03 -2.7918656937279394e-03 0.0000000000000000e+00  -5.6592151555628293e-04 -2.7928500299704770e-03 0.0000000000000000e+00  -2.7410842780493491e-03 -5.1093335101051870e-03 0.0000000000000000e+00  -2.7403945520320630e-03 -3.9340495487202622e-03 0.0000000000000000e+00  -2.7411275720222407e-03 -6.1190598315056795e-04 0.0000000000000000e+00  -5.6592151555628293e-04 -2.7928500299704770e-03 0.0000000000000000e+00  -3.9012220478364915e-03 -2.7919431115565347e-03 0.0000000000000000e+00  -5.1545647859546880e-03 -2.7923022360094732e-03 0.0000000000000000e+00  -5.0637792234756165e-03 -2.7928944450540979e-03 0.0000000000000000e+00  -5.1545647859546880e-03 -2.7923022360094732e-03 0.0000000000000000e+00  -5.0637792234756165e-03 -2.7928944450540979e-03 0.0000000000000000e+00  -5.0290979780012379e-03 -5.0842105560614248e-03 0.0000000000000000e+00  -4.4680627900438984e-03 -2.5211590382406956e-03 0.0000000000000000e+00  -4.6542709767589015e-03 -1.8819803437534631e-03 0.0000000000000000e+00  -3.7047472861148904e-03 -3.7555455075257119e-03 0.0000000000000000e+00  -5.0050568094133730e-03 -8.1407459244781338e-04 0.0000000000000000e+00  -5.2355204867538061e-03 -4.7092189216200173e-04 0.0000000000000000e+00  -5.2329029071331440e-03 -7.8935919193726068e-04 0.0000000000000000e+00  -1.8562893446686889e-03 -9.0216270310565570e-04 0.0000000000000000e+00  -4.2363245831879775e-04 -1.8893768327414384e-03 0.0000000000000000e+00  -5.2709788485187708e-03 -6.6034088611458929e-04 0.0000000000000000e+00  -3.8171477759364743e-03 -5.1522680922657660e-03 0.0000000000000000e+00  -1.5802933884094495e-03 -5.2286558864893017e-03 0.0000000000000000e+00  -2.4583473976209527e-03 -4.4845048909533869e-03 0.0000000000000000e+00  -5.1527685385307029e-03 -5.1445498547849199e-03 0.0000000000000000e+00  -4.2384827727813372e-04 -5.0222013596226938e-04 0.0000000000000000e+00  -4.6270149878220156e-04 -5.1043739074025374e-03 0.0000000000000000e+00  -4.4892136288092981e-04 -4.4392756393220635e-03 0.0000000000000000e+00  -4.5495704879234987e-03 -5.1489775199411204e-03 0.0000000000000000e+00  -9.4004098954344464e-04 -5.2539444304719567e-03 0.0000000000000000e+00  -4.4515874572623130e-03 -5.3475427537747887e-04 0.0000000000000000e+00  -6.7081384129763467e-04 -4.6669325722521323e-03 0.0000000000000000e+00  -4.4571164315919290e-04 -5.3219698095236176e-03 0.0000000000000000e+00  -3.6098443923581630e-03 -4.6573154600133495e-04 0.0000000000000000e+00  -5.2666789780361186e-03 -5.3318470023081760e-03 0.0000000000000000e+00  -4.4490130291422953e-03 -7.4457818366644194e-04 0.0000000000000000e+00  -4.6167541300587787e-03 -4.4016620381630697e-03 0.0000000000000000e+00  -4.1012436074900375e-03 -5.7148761706825139e-04 0.0000000000000000e+00  -4.0789002979522626e-03 -6.7609919560447445e-04 0.0000000000000000e+00  -9.8427045603975412e-04 -1.0240764284385087e-03 0.0000000000000000e+00  -7.5421681845075535e-04 -5.3331054865774783e-03 0.0000000000000000e+00  -2.5067568898837615e-03 -2.3080855283335450e-03 0.0000000000000000e+00  -4.9066666883035926e-03 -4.4600695996395738e-03 0.0000000000000000e+00  -3.5714340009754030e-03 -4.4723405980534765e-03 0.0000000000000000e+00  -4.7089244709942824e-03 -1.1665721401987611e-03 0.0000000000000000e+00  -5.1866807173282028e-03 -5.1620563997844945e-03 0.0000000000000000e+00  -3.5703541810578969e-03 -1.3505969925456170e-03 0.0000000000000000e+00  -1.9641190870493441e-03 -1.7441435364267551e-03 0.0000000000000000e+00  -5.2171941179550464e-03 -3.7602553870113788e-03 0.0000000000000000e+00  -4.6783910542234572e-04 -4.9846186990772801e-03 0.0000000000000000e+00  -4.3248789249450128e-03 -4.3665029164588849e-03 0.0000000000000000e+00  -4.3152173670892085e-03 -5.2684244753545342e-03 0.0000000000000000e+00  -5.2526174736118600e-03 -1.8355680896753601e-03 0.0000000000000000e+00  -5.2915696595697941e-03 -1.9932533411236922e-03 0.0000000000000000e+00  -2.4025076178015073e-03 -4.6153812826342597e-03 0.0000000000000000e+00  -1.3109237130927793e-03 -3.6266463153248312e-03 0.0000000000000000e+00  -2.1890113719854058e-03 -3.3644967789601627e-03 0.0000000000000000e+00  -6.2212142745107367e-04 -5.3634238152666940e-04 0.0000000000000000e+00  -4.9817757630055302e-03 -1.6190809869413504e-03 0.0000000000000000e+00  -5.2967379178177039e-03 -4.9388428217829860e-03 0.0000000000000000e+00  -2.4648531099962026e-03 -1.4695656670576551e-03 0.0000000000000000e+00  -2.9371908872256524e-03 -5.1637908816167472e-03 0.0000000000000000e+00  -5.1293337217614777e-03 -3.1753651195633495e-03 0.0000000000000000e+00  -3.5046659493437131e-03 -5.2929661608700470e-03 0.0000000000000000e+00  -3.4295888864694962e-03 -5.3122986091490333e-03 0.0000000000000000e+00  -4.9563314541090867e-04 -4.7163896543262222e-04 0.0000000000000000e+00  -1.6621351481533109e-03 -4.7088305511077859e-03 0.0000000000000000e+00  -5.2774567194673321e-04 -1.0007390118443305e-03 0.0000000000000000e+00  -7.7055931097488699e-04 -2.1670906284321774e-03 0.0000000000000000e+00  -1.4477448086790297e-03 -5.1224931358894703e-03 0.0000000000000000e+00  -4.8856998759836496e-03 -4.7554001634332816e-04 0.0000000000000000e+00  -3.0849323578986403e-03 -4.8739675196263219e-03 0.0000000000000000e+00  -1.0180372518958484e-03 -2.0068574914160332e-03 0.0000000000000000e+00  -4.2939314795815480e-03 -5.2596967516992535e-03 0.0000000000000000e+00  -2.0132927517821741e-03 -3.3242941943968083e-03 0.0000000000000000e+00  -2.0600578645509141e-03 -4.4230090119053746e-03 0.0000000000000000e+00  -9.9035739375080744e-04 -3.8069719798863718e-03 0.0000000000000000e+00  -1.6814942750186320e-03 -4.7984277021492072e-04 0.0000000000000000e+00  -5.8355184191033157e-04 -3.8176802747437091e-03 0.0000000000000000e+00  -6.9447678517957259e-04 -1.6129688629171923e-03 0.0000000000000000e+00  -4.8934680636462504e-03 -2.4766391515808547e-03 0.0000000000000000e+00  -4.2682479464715619e-03 -8.8550118230063175e-04 0.0000000000000000e+00  -3.5487731088396858e-03 -1.0098405959264505e-03 0.0000000000000000e+00  -4.0744479804367961e-03 -5.3270424535787637e-03 0.0000000000000000e+00  -2.9549408668236594e-03 -5.2916939056874123e-03 0.0000000000000000e+00  -2.1365051509990587e-03 -4.9352283020201958e-04 0.0000000000000000e+00  -9.4040412933159539e