<?xml version="1.0"?>
<VTKFile type="UnstructuredGrid"  version="0.1"  >
<UnstructuredGrid>
<Piece  NumberOfPoints="1380" NumberOfCells="2630">
<Points>
<DataArray  type="Float64"  NumberOfComponents="3"  format="ascii">-1 -1 0  1 -1 0  1 1 0  -1 1 0  0 -1 0  1 0 0  0 1 0  -1 0 0  0 0 0  -1 -0.5 0  -0.5 -1 0  -0.5 1 0  -1 0.5 0  1 -0.5 0  0.5 -1 0  1 0.5 0  0.5 1 0  0.4166666666666666 -0.4166666666666667 0  -0.4166666666666667 0.4166666666666667 0  -0.25 -0.5 0  0.5 0.25 0  -0.4861111111111112 -0.06944444444444445 0  0.0732758620689655 0.507183908045977 0  -0.625 -0.625 0  0.625 0.625 0  0.7380952380952381 -0.25 0  -0.7099116161616161 0.2105429292929293 0  -0.25 0.7380952380952381 0  0.105392156862745 -0.6348039215686275 0  0.6770833333333334 -0.6770833333333333 0  -0.6770833333333334 0.6770833333333334 0  0.3472222222222222 -0.06944444444444446 0  -0.7264957264957265 -0.3044871794871795 0  0.3141940982507127 0.7297313660835709 0  0.02049587951122483 -0.3227479397556124 0  -0.2690972222222223 0.1475694444444444 0  0.3859500089908372 -0.7274430156831472 0  -0.2228477945123298 -0.1761765495248019 0  0.2182539682539683 0.1884920634920635 0  0.75 0.375 0  -0.145442219440968 -0.7602211097204841 0  0.7088913690476191 0.0427827380952381 0  -0.75 -1 0  -1 -0.75 0  1 0.75 0  0.75 1 0  -0.7439982703698937 -0.04614153195464455 0  -0.4609235096577606 -0.3356498099556895 0  0.4063134471431929 0.4895621842856023 0  0.25 -1 0  -0.25 -1 0  -0.75 1 0  0.75 -1 0  -1 -0.25 0  -1 0.25 0  1 -0.25 0  -0.25 1 0  1 -0.75 0  -1 0.75 0  0.25 1 0  1 0.25 0  -0.4041423272138783 -0.7597141090712928 0  0.06500839607911253 0.7578103030529481 0  -0.1572801182352047 0.3838997021864289 0  -0.6528005242053915 0.4409494757946086 0  -0.4930160984848485 0.1544744318181818 0  -0.4732142857142858 0.7752976190476191 0  0.6398809523809523 -0.4538690476190476 0  0.5166054117396399 -0.2161233620965164 0  -0.002273787244753427 0.2232363985975174 0  0.1500564496765022 -0.1524955293952667 0  0.2016720420046758 -0.4410343282803009 0  -0.08495178036419618 0.6274139771124571 0  -0.8367311471133162 0.3642591720794645 0  -0.8333333333333334 -0.625 0  -0.594323836800685 -0.8231079456002283 0  -0.4466957714776065 -0.5349126855671806 0  0.8125 0.5625 0  0.78125 0.78125 0  0.5091392650016769 0.7947130883338923 0  0.125 -0.8382681931833136 0  -0.8184523809523809 -0.8184523809523809 0  -0.07781530426104531 -0.5819319697006881 0  0.5085055196703295 0.04967610411902112 0  0.2918471072074933 -0.276017202318847 0  0.5120763537765269 -0.5898771553229597 0  0.625 -0.8585349462365591 0  0.8158532234335381 -0.8158532234335381 0  -0.5198088446315396 0.5739411553684605 0  -0.8585349462365591 0.625 0  -0.8150493805516597 0.8156205699829586 0  0.8585349462365591 -0.625 0  -0.2688268348649726 0.5439331383603209 0  0.8242100426758139 -0.4436043596336612 0  0.5833756314287952 0.4479378157143976 0  0.8690476190476191 -0.125 0  -0.125 0.8690476190476191 0  -0.8692745600729823 0.125 0  0.8696725120759167 0.125 0  -0.625 0.8711516477451908 0  0.2339522463269718 0.3879558377955778 0  0.2453709502295031 0.5655822922838026 0  0.1730610651637797 0.02021709580868947 0  0.3245402594056757 -0.5644672020485209 0  -0.7291666666666666 -0.4816595441595442 0  -1 -0.375 0  -0.5811140848639904 -0.2127276307675001 0  0.673332592838314 0.2158348143233718 0  0.375 1 0  -0.5714768890989919 0.2985103444040069 0  -1 -0.125 0  -0.8453692574786325 -0.1875 0  -0.3144549134065865 -0.02408675326008025 0  -0.2898414972096258 -0.3336092734780093 0  -0.1075052092206287 -0.4224330421314983 0  -0.05043970703604117 -0.1652278959397459 0  0.6459672950297897 -0.1113415301525317 0  0.4645210271029513 0.6398480556579343 0  0.3512863754411909 0.0937979496253573 0  -0.6063160985568274 0.03891469652249891 0  -0.3428819444444445 0.8690476190476191 0  0.625 1 0  -0.1602164796159982 0.02697860906625157 0  0.04648110064133829 -0.4808416424239687 0  1 0.875 0  -0.3836102479201657 0.6484936449177356 0  -0.3776011723096096 0.263078478984336 0  -0.6024978259969829 -0.3949628096211138 0  0.125 1 0  0.2010781308272777 0.8456221018461906 0  0.2822509696388829 -0.845902544691141 0  -0.3285533674953515 -0.6289773550938936 0  0.3461306793221754 0.278777492464833 0  0.4737475672408696 -0.8508448959534423 0  0.2384632828836344 -0.7029523187242811 0  -0.004777287059791593 0.3759269695907358 0  -0.8499735021850066 -0.3912320205328522 0  0.1222536293721587 0.2963971539625205 0  -0.3769456520999688 -0.203572526805711 0  -0.2749617205755651 -0.8464290792698902 0  0.004805888512766143 -0.747174355248311 0  -0.125 -1 0  -0.06001061822252458 -0.8724007765244854 0  0.875 0.4375 0  0.854421179608893 0.271342359217786 0  0.875 1 0  -0.1499861095763589 0.2358309656934888 0  0.3381943639137225 0.8663061796405532 0  -0.7853090110442228 0.4998412775277108 0  0.7398165998560814 -0.5535192694951373 0  0.1580042122341573 -0.3100246140259917 0  -0.7291666666666667 -0.7142857142857142 0  -0.375 -1 0  0.6483368386154684 0.8514905990110488 0  -0.1295370103291928 -0.2826118305021242 0  0.07458201853700455 0.1123894386563915 0  0.6146465857036327 -0.3161203659316075 0  0.5551898493894731 -0.740296118159085 0  0.375 -1 0  0.482702798370208 -0.084133350091034 0  0.87890625 0.68359375 0  -0.05917195534525846 0.4971092425697621 0  0.1260710309213975 0.6343750312956699 0  0.8690476190476191 -0.3077066815262848 0  -0.2912010232560567 0.3668168386732139 0  -0.875 1 0  -1 0.875 0  1 -0.875 0  0.875 -1 0  -0.8689564281364567 -0.006189266075306407 0  -0.7449425635110547 0.08458938160051771 0  -0.7150266761936593 -0.1739444581417552 0  -0.5260034831318311 -0.711099823962112 0  -0.4724626808827322 -0.871722230709409 0  0.4734436795977052 0.377714794132168 0  -0.875 -1 0  -1 -0.875 0  0.6927189078571988 0.5156567235715964 0  -0.3742497615796874 -0.4296005251260107 0  -0.1969436423297711 -0.6387157229772615 0  -0.6179496409766825 -0.08933356056510935 0  -0.424405057115988 0.04452428810878029 0  -0.08479048335844169 0.1279607007132633 0  0.003830300099055113 0.8712085230656206 0  0.8748778838820267 -1.379218479898026e-05 0  -0.375 1 0  -0.625 1 0  1 0.125 0  -0.125 1 0  1 -0.375 0  1 -0.125 0  1 -0.625 0  0.625 -1 0  0.125 -1 0  -0.625 -1 0  -1 -0.625 0  -1 0.125 0  -1 0.375 0  -1 0.625 0  1 0.375 0  1 0.625 0  0.6325660748712082 0.3335187599557389 0  -0.06420945895056573 0.7549874027425891 0  -0.8769015540914771 0.2478802253893416 0  0.871875 0.871875 0  -0.6868091492840067 0.3270978624973681 0  -0.5363597469565949 0.412994850055505 0  -0.6803734992638302 0.5574295000651103 0  -0.7076253581162534 -0.8803439094224437 0  -0.8778089002295137 -0.5106896447504627 0  -0.3860184984222981 0.530566778071246 0  0.6109900617121508 0.1128453077697081 0  0.3896945134930274 -0.1915382873255086 0  0.7605656944697778 -0.06822134873122943 0  0.3576151269893478 0.5948388411612135 0  -0.5689902680792265 -0.5143596830118065 0  0.6262446286847614 -0.5735657901943212 0  0.2030558252325225 -0.5625263842513452 0  0.6123273142928579 0.7407533260723429 0  0.4016460890123554 -0.3042863223111857 0  -0.59039693199147 0.7578418819188018 0  0.7276932493917544 -0.3705808024528924 0  0.5222536818742854 -0.4713886230400014 0  -0.5101986527137737 0.8848365765607674 0  0.510560172809238 0.5356013299918891 0  -0.3603569195756083 0.75823710606415 0  0.1967279277813232 0.728226870058472 0  -0.6086880986371127 0.1545624071548516 0  -0.38105366729386 0.1511189987807864 0  -0.2944659463671584 -0.7359061804869591 0  0.5060729154966499 -0.3475227845833823 0  -0.09281616240412746 -0.06197858250969457 0  0.7649739583333334 0.6673177083333334 0  0.7628906249999999 0.890234375 0  -0.2666864184909611 0.2585504071132311 0  0.3635064892129658 0.3878003602709461 0  -0.2339409722222222 0.8901937905844155 0  -0.1718792125974916 -0.8957733325456778 0  0.1001768566329531 0.4023510017391879 0  0.3120260172693757 -0.4540546875576884 0  0.7804062804433681 0.1896628610854537 0  0.4087715451998049 0.187961780041608 0  -0.1584963477271457 0.5451611892421655 0  -0.8926817849258324 0.463022006336401 0  0.2338091473445219 -0.07576267331277289 0  0.08171112182813692 -0.2349087687359925 0  0.04635385178956847 -0.1044635073718474 0  -0.4377391632114205 -0.6448874471423088 0  -0.1907678351227189 0.6480215912813945 0  0.300605946475244 0.4741444604171038 0  -0.2145033720757486 -0.06751709909419711 0  0.6069191921170397 -0.005492331448357812 0  0.0214718770761248 0.6032397936031719 0  0.5476675683364878 0.8992752415326501 0  0.4387475014316537 0.9093708953002239 0  -0.4932997685306436 -0.4381009159993523 0  0.2515197695339056 -0.1791673369138964 0  -0.7291666666666667 -0.6088789682539681 0  -0.9166666666666667 -0.6875 0  0.620579540363709 -0.2122431523583302 0  -0.484950136419973 0.6719440339397442 0  0.2857044415400258 0.0137589173127316 0  -0.8945708364098356 -0.288306105327986 0  0.4043102720140535 0.7842914560451557 0  0.04123256238752064 -0.9026968245801402 0  0.2003676884403109 -0.9091888601740487 0  0.1068775558538842 -0.7373377130403223 0  -0.4804566783514427 -0.1763307203045643 0  0.108286342087769 -0.3993789328997278 0  -0.191883080105361 -0.3640821726430649 0  -0.07025064492006244 0.2984876656890053 0  -0.7039324641409584 0.788312126296613 0  -0.7311286585775438 0.8932502354831682 0  0.5171409396884947 0.1503852691889257 0  0.4229392823658633 -0.003216522184234835 0  -0.5621736087218259 -0.919558629836806 0  -0.626474064879544 -0.7266572613636506 0  0.2446828746617422 0.2867616783302419 0  0.1759429608742923 0.4776611759306416 0  -0.3468240303741654 -0.5260416435617549 0  -0.7465808808425306 0.4069574477998361 0  -0.7819962170660292 0.2802441065650652 0  -0.3742623214119594 -0.8547800509641984 0  0.1014498009713561 0.8506721983266377 0  0.4285217620918213 -0.5230190595570253 0  0.4091738370487775 -0.6256346204225141 0  0.78125 0.46875 0  0.90625 0.53125 0  -0.4791801348852565 0.2553992655702126 0  0.7843318610782772 -0.7086046956885941 0  0.8909728264971901 -0.7355183796514634 0  0.7041908166528879 -0.7830649143180282 0  0.7311821352
[...]
<PointData  Vectors="f_22"> 
<DataArray  type="Float64"  Name="f_22"  NumberOfComponents="3" format="ascii">-1.7823731840145525e-02 -1.6649943399127901e-02 0.0000000000000000e+00  -1.7823731840145525e-02 -1.6649943399127901e-02 0.0000000000000000e+00  -1.7823731840145525e-02 -1.6649943399127901e-02 0.0000000000000000e+00  -1.7823731840145525e-02 -1.6649943399127901e-02 0.0000000000000000e+00  -1.7760686186601288e-02 -2.0915130227985489e-02 0.0000000000000000e+00  -2.1877064651771885e-02 -1.6586475268435940e-02 0.0000000000000000e+00  -1.7760686186601288e-02 -2.0915130227985489e-02 0.0000000000000000e+00  -2.1877064651771885e-02 -1.6586475268435940e-02 0.0000000000000000e+00  -2.1942885333891181e-02 -2.0981774775931550e-02 0.0000000000000000e+00  -1.1131623323825729e-02 -1.6615349124203784e-02 0.0000000000000000e+00  -1.7789301222811495e-02 -1.0096763076583354e-02 0.0000000000000000e+00  -1.7789301222811495e-02 -1.0096763076583354e-02 0.0000000000000000e+00  -2.8575326826227921e-02 -1.6614410064564655e-02 0.0000000000000000e+00  -1.1131623323825729e-02 -1.6615349124203784e-02 0.0000000000000000e+00  -1.7789084945527878e-02 -2.7474948374128134e-02 0.0000000000000000e+00  -2.8575326826227921e-02 -1.6614410064564655e-02 0.0000000000000000e+00  -1.7789084945527878e-02 -2.7474948374128134e-02 0.0000000000000000e+00  -1.1937809968177211e-02 -2.7710793944433060e-02 0.0000000000000000e+00  -2.8782959075651062e-02 -1.0929562227591347e-02 0.0000000000000000e+00  -1.1154678764529044e-02 -1.4193971702735493e-02 0.0000000000000000e+00  -2.7496452022754882e-02 -2.7493432970489472e-02 0.0000000000000000e+00  -1.9985151048424726e-02 -1.0208600616448790e-02 0.0000000000000000e+00  -2.8530372460799598e-02 -2.2883969487715407e-02 0.0000000000000000e+00  -1.1043157989884277e-02 -9.9653647295075039e-03 0.0000000000000000e+00  -2.7150536710347624e-02 -2.6011625335924850e-02 0.0000000000000000e+00  -1.5111832067400381e-02 -2.3641681405728029e-02 0.0000000000000000e+00  -2.6807895777902636e-02 -1.0558787433073012e-02 0.0000000000000000e+00  -2.4806415758122476e-02 -1.4142874146084963e-02 0.0000000000000000e+00  -1.1033678756967698e-02 -2.3639147745654954e-02 0.0000000000000000e+00  -1.1346125028053678e-02 -2.4996552188379990e-02 0.0000000000000000e+00  -2.6148894479587917e-02 -1.0249640742066838e-02 0.0000000000000000e+00  -1.9986206159483221e-02 -2.7499036623837011e-02 0.0000000000000000e+00  -1.3917801439480718e-02 -1.0803326461956584e-02 0.0000000000000000e+00  -2.5046790368754328e-02 -2.7236369500596304e-02 0.0000000000000000e+00  -1.3552400197531331e-02 -2.1521711798499304e-02 0.0000000000000000e+00  -2.5604969915328495e-02 -1.3731161403329242e-02 0.0000000000000000e+00  -1.1882523165578460e-02 -2.7654127082895077e-02 0.0000000000000000e+00  -1.7050740670082463e-02 -1.4873974629400042e-02 0.0000000000000000e+00  -2.6459219502999658e-02 -2.5992410067610713e-02 0.0000000000000000e+00  -2.8709245921989195e-02 -2.3408385281001039e-02 0.0000000000000000e+00  -1.2376424735540173e-02 -1.6882221873985890e-02 0.0000000000000000e+00  -2.3046300388923465e-02 -2.4329512094226038e-02 0.0000000000000000e+00  -1.7812505368952024e-02 -1.1138209157219019e-02 0.0000000000000000e+00  -1.2257917335342490e-02 -1.6638767032689235e-02 0.0000000000000000e+00  -2.4582711779003348e-02 -1.6638136495798324e-02 0.0000000000000000e+00  -1.7812784691493336e-02 -2.3414552223650107e-02 0.0000000000000000e+00  -2.0611733206641246e-02 -1.1007410344742175e-02 0.0000000000000000e+00  -1.3313266114629026e-02 -1.0457158512005921e-02 0.0000000000000000e+00  -2.8664743857100373e-02 -2.7756110439540922e-02 0.0000000000000000e+00  -1.7768529452180392e-02 -2.6439060368314778e-02 0.0000000000000000e+00  -1.7768669816648534e-02 -1.4146702755806765e-02 0.0000000000000000e+00  -1.7812505368952024e-02 -1.1138209157219019e-02 0.0000000000000000e+00  -1.7812784691493336e-02 -2.3414552223650107e-02 0.0000000000000000e+00  -1.5115612924562597e-02 -1.6594869100237403e-02 0.0000000000000000e+00  -2.7453175374138866e-02 -1.6594001597205071e-02 0.0000000000000000e+00  -1.5115612924562597e-02 -1.6594869100237403e-02 0.0000000000000000e+00  -1.7768669816648534e-02 -1.4146702755806765e-02 0.0000000000000000e+00  -1.2257917335342490e-02 -1.6638767032689235e-02 0.0000000000000000e+00  -2.4582711779003348e-02 -1.6638136495798324e-02 0.0000000000000000e+00  -1.7768529452180392e-02 -2.6439060368314778e-02 0.0000000000000000e+00  -2.7453175374138866e-02 -1.6594001597205071e-02 0.0000000000000000e+00  -1.2396134692749042e-02 -1.1142524406502801e-02 0.0000000000000000e+00  -2.4356003624559048e-02 -2.2649695680440958e-02 0.0000000000000000e+00  -2.8730738451128772e-02 -1.6571224178570994e-02 0.0000000000000000e+00  -2.8774567356600854e-02 -1.0046816848100959e-02 0.0000000000000000e+00  -2.5732763743224633e-02 -1.0133569011773489e-02 0.0000000000000000e+00  -2.3909048980009260e-02 -1.0288741233170355e-02 0.0000000000000000e+00  -1.1493001045435063e-02 -2.5687915507193425e-02 0.0000000000000000e+00  -1.5961669595745225e-02 -2.7324784262683061e-02 0.0000000000000000e+00  -2.7076502244020396e-02 -2.0913530094708230e-02 0.0000000000000000e+00  -1.7679435525142666e-02 -2.4679248307796726e-02 0.0000000000000000e+00  -1.1647906567349077e-02 -2.5664391999936732e-02 0.0000000000000000e+00  -2.7059721064330532e-02 -1.8565643844685932e-02 0.0000000000000000e+00  -2.8621527914738480e-02 -1.2602978618744686e-02 0.0000000000000000e+00  -1.1036500620815546e-02 -1.2596543586258783e-02 0.0000000000000000e+00  -1.3531787152560485e-02 -9.8698003452576608e-03 0.0000000000000000e+00  -1.0990889651381983e-02 -1.0610089664421486e-02 0.0000000000000000e+00  -2.8025960159369662e-02 -2.1829950154273605e-02 0.0000000000000000e+00  -2.3821053439622597e-02 -2.2649068500134473e-02 0.0000000000000000e+00  -2.3466932595074753e-02 -2.7426533785903727e-02 0.0000000000000000e+00  -1.3776532191463981e-02 -2.4080519737851296e-02 0.0000000000000000e+00  -1.3448312981499811e-02 -1.2309256224399934e-02 0.0000000000000000e+00  -1.0895172276858643e-02 -1.8783741783658707e-02 0.0000000000000000e+00  -2.3247953130467125e-02 -2.7414518186850818e-02 0.0000000000000000e+00  -1.4531947616196949e-02 -2.6993261362537595e-02 0.0000000000000000e+00  -1.0873951327304543e-02 -2.7352450150113776e-02 0.0000000000000000e+00  -1.4239592400143625e-02 -2.5977940577321414e-02 0.0000000000000000e+00  -1.3374840744048520e-02 -2.1725551952258001e-02 0.0000000000000000e+00  -2.7830057640174617e-02 -9.9508620508744604e-03 0.0000000000000000e+00  -2.7117425626877672e-02 -1.3089030802107507e-02 0.0000000000000000e+00  -2.2906807949359998e-02 -1.2220697428135306e-02 0.0000000000000000e+00  -1.1008549087953004e-02 -2.0551193800284515e-02 0.0000000000000000e+00  -2.8178294406761627e-02 -1.3705711165446112e-02 0.0000000000000000e+00  -1.1610873302783065e-02 -2.1466149051106387e-02 0.0000000000000000e+00  -2.8819157721731499e-02 -2.6642213434505235e-02 0.0000000000000000e+00  -1.8383424828863938e-02 -2.0238250541391469e-02 0.0000000000000000e+00  -2.1416734732429915e-02 -1.7427131454636265e-02 0.0000000000000000e+00  -2.5061191053457815e-02 -1.3296332819104733e-02 0.0000000000000000e+00  -2.5069064008253584e-02 -2.0234259174748165e-02 0.0000000000000000e+00  -2.1382201570925193e-02 -9.9314150489053874e-03 0.0000000000000000e+00  -2.8774982858066234e-02 -2.6244415316742133e-02 0.0000000000000000e+00  -2.7983647272071085e-02 -2.6408460629245307e-02 0.0000000000000000e+00  -2.2489447160905535e-02 -2.5160187216102671e-02 0.0000000000000000e+00  -1.0866297379541699e-02 -2.7294469398834318e-02 0.0000000000000000e+00  -1.1287687848382041e-02 -1.0853454017777653e-02 0.0000000000000000e+00  -1.2569078018928101e-02 -1.6603942737631786e-02 0.0000000000000000e+00  -1.6076711204344580e-02 -9.8463625769128326e-03 0.0000000000000000e+00  -2.6930569552612103e-02 -2.5097917164705191e-02 0.0000000000000000e+00  -1.7777693432016822e-02 -2.7631168785237862e-02 0.0000000000000000e+00  -2.8077384660211702e-02 -9.8040073293269893e-03 0.0000000000000000e+00  -1.8383806104625398e-02 -1.6588519040496675e-02 0.0000000000000000e+00  -1.6700847663866595e-02 -1.2801165864777130e-02 0.0000000000000000e+00  -2.1267536564340370e-02 -1.2743409691401033e-02 0.0000000000000000e+00  -1.3354794567068760e-02 -1.3281712749410471e-02 0.0000000000000000e+00  -1.1903319876269887e-02 -1.7967476116028551e-02 0.0000000000000000e+00  -1.7343450658012839e-02 -1.9581818234920893e-02 0.0000000000000000e+00  -1.8777664842895857e-02 -2.5590146838117531e-02 0.0000000000000000e+00  -2.6894159926195364e-02 -2.7685253177297753e-02 0.0000000000000000e+00  -2.4378027069996953e-02 -2.7537612965072407e-02 0.0000000000000000e+00  -2.2949263407236676e-02 -9.8536814482785232e-03 0.0000000000000000e+00  -2.1418444837743564e-02 -1.2134362438983906e-02 0.0000000000000000e+00  -1.7801235157712925e-02 -2.5993869070426459e-02 0.0000000000000000e+00  -2.2669504849910566e-02 -1.6517946071825208e-02 0.0000000000000000e+00  -1.1269000979233895e-02 -2.2192147980610571e-02 0.0000000000000000e+00  -2.1311820080784149e-02 -1.6646367128219135e-02 0.0000000000000000e+00  -2.6676779248962453e-02 -1.1417291234783919e-02 0.0000000000000000e+00  -2.7652364450088150e-02 -1.1533174852369104e-02 0.0000000000000000e+00  -1.2293959679312341e-02 -9.8866226763987368e-03 0.0000000000000000e+00  -1.7762698936351011e-02 -2.4080132381015761e-02 0.0000000000000000e+00  -2.2083174751662424e-02 -2.5649328385486315e-02 0.0000000000000000e+00  -1.3937315682952279e-02 -2.6861264142844857e-02 0.0000000000000000e+00  -1.1047704116724759e-02 -1.2454560331439010e-02 0.0000000000000000e+00  -2.7898763103798546e-02 -2.7512969914030350e-02 0.0000000000000000e+00  -1.4055256331761721e-02 -2.7607001946435863e-02 0.0000000000000000e+00  -1.1585676265158064e-02 -2.6260839669339633e-02 0.0000000000000000e+00  -2.8712912139906999e-02 -2.0833694440482449e-02 0.0000000000000000e+00  -1.2327902577661280e-02 -1.2919345299220520e-02 0.0000000000000000e+00  -2.8104436627028277e-02 -2.4075335137521237e-02 0.0000000000000000e+00  -1.6326624824674979e-02 -1.1581233890590382e-02 0.0000000000000000e+00  -1.3978788848821489e-02 -1.3575285092991723e-02 0.0000000000000000e+00  -1.2165895269311047e-02 -2.1059257664997246e-02 0.0000000000000000e+00  -1.7762689371987328e-02 -1.7427662274144329e-02 0.0000000000000000e+00  -1.4527865428185049e-02 -1.9254529390389130e-02 0.0000000000000000e+00  -2.8814687705418084e-02 -2.0113361063715134e-02 0.0000000000000000e+00  -2.7765348046224606e-02 -2.0669867884947422e-02 0.0000000000000000e+00  -1.7820687883007624e-02 -2.0132224767463600e-02 0.0000000000000000e+00  -2.7270436546884404e-02 -1.6784270120421135e-02 0.0000000000000000e+00  -2.1525451442823883e-02 -2.7427186766635074e-02 0.0000000000000000e+00  -2.8554936971657379e-02 -1.1643628804040173e-02 0.0000000000000000e+00  -1.0892922294429971e-02 -2.3609343281343415e-02 0.0000000000000000e+00  -1.3801580534335530e-02 -2.4833011051740815e-02 0.0000000000000000e+00  -1.1787876958904439e-02 -1.0862837003980377e-02 0.0000000000000000e+00  -1.7777882413294765e-02 -1.1572640507483519e-02 0.0000000000000000e+00  -2.1957387294526891e-02 -2.5596524703601659e-02 0.0000000000000000e+00  -1.4414119725990611e-02 -1.7362753609773914e-02 0.0000000000000000e+00  -2.4831192094845293e-02 -2.2939373920642370e-02 0.0000000000000000e+00  -1.3644228991512068e-02 -2.6115639449086677e-02 0.0000000000000000e+00  -1.2068691957975539e-02 -2.6947752451368639e-02 0.0000000000000000e+00  -1.7777693432016822e-02 -2.7631168785237862e-02 0.0000000000000000e+00  -1.9558326755598838e-02 -2.7569739831434532e-02 0.0000000000000000e+00  -2.6063740845010425e-02 -2.0021360292899734e-02 0.0000000000000000e+00  -2.8585359770448494e-02 -1.9305268061939346e-02 0.0000000000000000e+00  -2.6962698016675397e-02 -2.4134699261434977e-02 0.0000000000000000e+00  -1.3816725248415415e-02 -2.0238530379759263e-02 0.0000000000000000e+00  -2.8644453772146666e-02 -1.3210165457675621e-02 0.0000000000000000e+00  -1.7820753977733955e-02 -1.3493499485941049e-02 0.0000000000000000e+00  -2.1311820080784149e-02 -1.6646367128219135e-02 0.0000000000000000e+00  -1.4646280076910040e-02 -1.6646975441829047e-02 0.0000000000000000e+00  -1.7820687883007624e-02 -2.0132224767463600e-02 0.0000000000000000e+00  -2.1711413786672545e-02 -1.3294829204096598e-02 0.0000000000000000e+00  -2.4105065678163177e-02 -1.1009709937112214e-02 0.0000000000000000e+00  -1.7074074618531020e-02 -1.0649959318087314e-02 0.0000000000000000e+00  -1.1744082749551467e-02 -9.9770180182577241e-03 0.0000000000000000e+00  -1.4552172649784412e-02 -1.0325756881705166e-02 0.0000000000000000e+00  -2.8737745178179040e-02 -2.7651236727230404e-02 0.0000000000000000e+00  -1.7820753977733955e-02 -1.3493499485941049e-02 0.0000000000000000e+00  -1.4646280076910040e-02 -1.6646975441829047e-02 0.0000000000000000e+00  -2.8486940089156868e-02 -2.4720478128684321e-02 0.0000000000000000e+00  -1.1826767789036673e-02 -1.1629957260122604e-02 0.0000000000000000e+00  -1.1085478864103281e-02 -1.5514508098780756e-02 0.0000000000000000e+00  -1.9413509826462467e-02 -9.9010879787068268e-03 0.0000000000000000e+00  -2.3113860094162383e-02 -1.0854315296466946e-02 0.0000000000000000e+00  -2.5185269705993246e-02 -1.8612875384492310e-02 0.0000000000000000e+00  -2.1361904696968879e-02 -2.1023939422624260e-02 0.0000000000000000e+00  -2.1879964688661335e-02 -2.0081191568189414e-02 0.0000000000000000e+00  -1.7777882413294765e-02 -1.1572640507483519e-02 0.0000000000000000e+00  -1.7801192754789127e-02 -9.9444356492129678e-03 0.0000000000000000e+00  -2.5061622101062928e-02 -1.6588370079464294e-02 0.0000000000000000e+00  -1.7762689371987328e-02 -1.7427662274144329e-02 0.0000000000000000e+00  -1.2569078018928101e-02 -1.6603942737631786e-02 0.0000000000000000e+00  -1.8383806104625398e-02 -1.6588519040496675e-02 0.0000000000000000e+00  -1.1023096200149169e-02 -1.6627309644665203e-02 0.0000000000000000e+00  -1.7801235157712925e-02 -2.5993869070426459e-02 0.0000000000000000e+00  -1.7762698936351011e-02 -2.4080132381015761e-02 0.0000000000000000e+00  -1.7801192754789127e-02 -9.9444356492129678e-03 0.0000000000000000e+00  -1.1023096200149169e-02 -1.6627309644665203e-02 0.0000000000000000e+00  -2.5061622101062928e-02 -1.6588370079464294e-02 0.0000000000000000e+00  -2.8687502295222135e-02 -1.6603136632290350e-02 0.0000000000000000e+00  -2.7133334596648344e-02 -1.6626886103934844e-02 0.0000000000000000e+00  -2.8687502295222135e-02 -1.6603136632290350e-02 0.0000000000000000e+00  -2.7133334596648344e-02 -1.6626886103934844e-02 0.0000000000000000e+00  -2.8453751837320823e-02 -2.5871568754525003e-02 0.0000000000000000e+00  -2.4413629089576751e-02 -1.9139552941105972e-02 0.0000000000000000e+00  -2.7416696048759383e-02 -1.3468317472470952e-02 0.0000000000000000e+00  -2.1401558467219032e-02 -2.0221468049693249e-02 0.0000000000000000e+00  -2.8354941701868329e-02 -1.0317134178653110e-02 0.0000000000000000e+00  -2.8776023765957767e-02 -9.8768251809975231e-03 0.0000000000000000e+00  -2.8036133936260720e-02 -1.0267673572971441e-02 0.0000000000000000e+00  -1.4766985285061623e-02 -1.0598682112691118e-02 0.0000000000000000e+00  -1.1080755627845487e-02 -1.3540285206324934e-02 0.0000000000000000e+00  -2.8302487535794597e-02 -1.1380326663800127e-02 0.0000000000000000e+00  -2.4811967143020922e-02 -2.6209099274848255e-02 0.0000000000000000e+00  -1.6609246127764900e-02 -2.7684163625709531e-02 0.0000000000000000e+00  -1.9982478633360515e-02 -2.3108943421772134e-02 0.0000000000000000e+00  -2.7606447761568825e-02 -2.7576956720356663e-02 0.0000000000000000e+00  -1.1080308816897703e-02 -9.8684933414759316e-03 0.0000000000000000e+00  -1.0867858815635447e-02 -2.5928981092909156e-02 0.0000000000000000e+00  -1.0874054833672264e-02 -2.5679930210830735e-02 0.0000000000000000e+00  -2.4808316657950719e-02 -2.6215773514515161e-02 0.0000000000000000e+00  -1.3901632881378561e-02 -2.7701551173607560e-02 0.0000000000000000e+00  -2.4347656829252447e-02 -9.8251901192452241e-03 0.0000000000000000e+00  -1.2628769491187287e-02 -2.3883075536794529e-02 0.0000000000000000e+00  -1.1323080477003878e-02 -2.7265903243198227e-02 0.0000000000000000e+00  -2.0991917890019515e-02 -1.0022518083759237e-02 0.0000000000000000e+00  -2.8318210217013539e-02 -2.7425404682083019e-02 0.0000000000000000e+00  -2.4325087071790572e-02 -1.1811637754142876e-02 0.0000000000000000e+00  -2.5070207033953129e-02 -2.5581248821070841e-02 0.0000000000000000e+00  -2.5725242702019688e-02 -9.8498004638567001e-03 0.0000000000000000e+00  -2.5671299963156879e-02 -1.1485717459367172e-02 0.0000000000000000e+00  -1.2038760642592194e-02 -1.3152342171402825e-02 0.0000000000000000e+00  -1.3038225118068769e-02 -2.7399374155596588e-02 0.0000000000000000e+00  -2.0216597145369410e-02 -1.8392571473556846e-02 0.0000000000000000e+00  -2.6390543418951303e-02 -2.3056943663729679e-02 0.0000000000000000e+00  -2.0887225695284579e-02 -2.3106946059409536e-02 0.0000000000000000e+00  -2.7598968662448566e-02 -1.3777883770006105e-02 0.0000000000000000e+00  -2.8777640480030696e-02 -2.7616330560991591e-02 0.0000000000000000e+00  -2.0827750735269556e-02 -1.4534425413485472e-02 0.0000000000000000e+00  -1.5079296127548391e-02 -1.6151211826247593e-02 0.0000000000000000e+00  -2.8805480752796396e-02 -2.3552915133764736e-02 0.0000000000000000e+00  -1.1497395974985220e-02 -2.7187440027575900e-02 0.0000000000000000e+00  -2.6441830924841817e-02 -2.2634688997397727e-02 0.0000000000000000e+00  -2.6442679056551406e-02 -2.7753196189358998e-02 0.0000000000000000e+00  -2.8173827750142204e-02 -1.6523406558260074e-02 0.0000000000000000e+00  -2.8741453702764541e-02 -1.3847105689934828e-02 0.0000000000000000e+00  -1.9817008365890041e-02 -2.6233136969137174e-02 0.0000000000000000e+00  -1.5526370932439332e-02 -2.3104316934472215e-02 0.0000000000000000e+00  -1.9019213363229159e-02 -2.2216683388274882e-02 0.0000000000000000e+00  -1.1143425380461073e-02 -1.0708389360990778e-02 0.0000000000000000e+00  -2.6692185063760993e-02 -1.5647902032838279e-02 0.0000000000000000e+00  -2.8737021194638709e-02 -2.7118727592853484e-02 0.0000000000000000e+00  -2.0058230973047132e-02 -1.5083771171038637e-02 0.0000000000000000e+00  -2.1751772644817612e-02 -2.6260631799181269e-02 0.0000000000000000e+00  -2.7453370248635971e-02 -2.1525239795762770e-02 0.0000000000000000e+00  -2.0620296086234842e-02 -2.7067224002110302e-02 0.0000000000000000e+00  -2.0326739149124893e-02 -2.7731510382572298e-02 0.0000000000000000e+00  -1.1725231375447282e-02 -1.0176797900963121e-02 0.0000000000000000e+00  -1.6949661005383480e-02 -2.6489461642567838e-02 0.0000000000000000e+00  -1.0979258703175567e-02 -1.0860722665294904e-02 0.0000000000000000e+00  -1.1486455520233651e-02 -1.4471474647372267e-02 0.0000000000000000e+00  -1.6052968241094506e-02 -2.6024178139025616e-02 0.0000000000000000e+00  -2.6236076199087684e-02 -1.0183434885457579e-02 0.0000000000000000e+00  -2.2308475791574987e-02 -2.6947554325196913e-02 0.0000000000000000e+00  -1.4246851137260113e-02 -1.3904389614615667e-02 0.0000000000000000e+00  -2.3727129914252111e-02 -2.7736635295577301e-02 0.0000000000000000e+00  -1.5231822684985175e-02 -2.2021445509007833e-02 0.0000000000000000e+00  -1.5388551704233368e-02 -2.5622390272403223e-02 0.0000000000000000e+00  -1.2019075466606797e-02 -2.3667025992428248e-02 0.0000000000000000e+00  -1.7034519315431831e-02 -1.0265171826595068e-02 0.0000000000000000e+00  -1.2204071141431089e-02 -2.3728008797780101e-02 0.0000000000000000e+00  -1.2793859634715738e-02 -1.5669602149139959e-02 0.0000000000000000e+00  -2.8114692450456055e-02 -1.9011392995897072e-02 0.0000000000000000e+00  -2.3601926269823433e-02 -1.0526389014414477e-02 0.0000000000000000e+00  -2.0780118285418564e-02 -1.0866355211271245e-02 0.0000000000000000e+00  -2.5667823032219057e-02 -2.7355034646922134e-02 0.0000000000000000e+00  -2.1832712334064676e-02 -2.7744793977752050e-02 0.0000000000000000e+00  -1.5693964620301599e-02 -9.8568975815455460e-03 0.0000000000000000e+00  -1.1941244212975061e