<?xml version="1.0"?>
<VTKFile type="UnstructuredGrid"  version="0.1"  >
<UnstructuredGrid>
<Piece  NumberOfPoints="1380" NumberOfCells="2630">
<Points>
<DataArray  type="Float64"  NumberOfComponents="3"  format="ascii">-1 -1 0  1 -1 0  1 1 0  -1 1 0  0 -1 0  1 0 0  0 1 0  -1 0 0  0 0 0  -1 -0.5 0  -0.5 -1 0  -0.5 1 0  -1 0.5 0  1 -0.5 0  0.5 -1 0  1 0.5 0  0.5 1 0  0.4166666666666666 -0.4166666666666667 0  -0.4166666666666667 0.4166666666666667 0  -0.25 -0.5 0  0.5 0.25 0  -0.4861111111111112 -0.06944444444444445 0  0.0732758620689655 0.507183908045977 0  -0.625 -0.625 0  0.625 0.625 0  0.7380952380952381 -0.25 0  -0.7099116161616161 0.2105429292929293 0  -0.25 0.7380952380952381 0  0.105392156862745 -0.6348039215686275 0  0.6770833333333334 -0.6770833333333333 0  -0.6770833333333334 0.6770833333333334 0  0.3472222222222222 -0.06944444444444446 0  -0.7264957264957265 -0.3044871794871795 0  0.3141940982507127 0.7297313660835709 0  0.02049587951122483 -0.3227479397556124 0  -0.2690972222222223 0.1475694444444444 0  0.3859500089908372 -0.7274430156831472 0  -0.2228477945123298 -0.1761765495248019 0  0.2182539682539683 0.1884920634920635 0  0.75 0.375 0  -0.145442219440968 -0.7602211097204841 0  0.7088913690476191 0.0427827380952381 0  -0.75 -1 0  -1 -0.75 0  1 0.75 0  0.75 1 0  -0.7439982703698937 -0.04614153195464455 0  -0.4609235096577606 -0.3356498099556895 0  0.4063134471431929 0.4895621842856023 0  0.25 -1 0  -0.25 -1 0  -0.75 1 0  0.75 -1 0  -1 -0.25 0  -1 0.25 0  1 -0.25 0  -0.25 1 0  1 -0.75 0  -1 0.75 0  0.25 1 0  1 0.25 0  -0.4041423272138783 -0.7597141090712928 0  0.06500839607911253 0.7578103030529481 0  -0.1572801182352047 0.3838997021864289 0  -0.6528005242053915 0.4409494757946086 0  -0.4930160984848485 0.1544744318181818 0  -0.4732142857142858 0.7752976190476191 0  0.6398809523809523 -0.4538690476190476 0  0.5166054117396399 -0.2161233620965164 0  -0.002273787244753427 0.2232363985975174 0  0.1500564496765022 -0.1524955293952667 0  0.2016720420046758 -0.4410343282803009 0  -0.08495178036419618 0.6274139771124571 0  -0.8367311471133162 0.3642591720794645 0  -0.8333333333333334 -0.625 0  -0.594323836800685 -0.8231079456002283 0  -0.4466957714776065 -0.5349126855671806 0  0.8125 0.5625 0  0.78125 0.78125 0  0.5091392650016769 0.7947130883338923 0  0.125 -0.8382681931833136 0  -0.8184523809523809 -0.8184523809523809 0  -0.07781530426104531 -0.5819319697006881 0  0.5085055196703295 0.04967610411902112 0  0.2918471072074933 -0.276017202318847 0  0.5120763537765269 -0.5898771553229597 0  0.625 -0.8585349462365591 0  0.8158532234335381 -0.8158532234335381 0  -0.5198088446315396 0.5739411553684605 0  -0.8585349462365591 0.625 0  -0.8150493805516597 0.8156205699829586 0  0.8585349462365591 -0.625 0  -0.2688268348649726 0.5439331383603209 0  0.8242100426758139 -0.4436043596336612 0  0.5833756314287952 0.4479378157143976 0  0.8690476190476191 -0.125 0  -0.125 0.8690476190476191 0  -0.8692745600729823 0.125 0  0.8696725120759167 0.125 0  -0.625 0.8711516477451908 0  0.2339522463269718 0.3879558377955778 0  0.2453709502295031 0.5655822922838026 0  0.1730610651637797 0.02021709580868947 0  0.3245402594056757 -0.5644672020485209 0  -0.7291666666666666 -0.4816595441595442 0  -1 -0.375 0  -0.5811140848639904 -0.2127276307675001 0  0.673332592838314 0.2158348143233718 0  0.375 1 0  -0.5714768890989919 0.2985103444040069 0  -1 -0.125 0  -0.8453692574786325 -0.1875 0  -0.3144549134065865 -0.02408675326008025 0  -0.2898414972096258 -0.3336092734780093 0  -0.1075052092206287 -0.4224330421314983 0  -0.05043970703604117 -0.1652278959397459 0  0.6459672950297897 -0.1113415301525317 0  0.4645210271029513 0.6398480556579343 0  0.3512863754411909 0.0937979496253573 0  -0.6063160985568274 0.03891469652249891 0  -0.3428819444444445 0.8690476190476191 0  0.625 1 0  -0.1602164796159982 0.02697860906625157 0  0.04648110064133829 -0.4808416424239687 0  1 0.875 0  -0.3836102479201657 0.6484936449177356 0  -0.3776011723096096 0.263078478984336 0  -0.6024978259969829 -0.3949628096211138 0  0.125 1 0  0.2010781308272777 0.8456221018461906 0  0.2822509696388829 -0.845902544691141 0  -0.3285533674953515 -0.6289773550938936 0  0.3461306793221754 0.278777492464833 0  0.4737475672408696 -0.8508448959534423 0  0.2384632828836344 -0.7029523187242811 0  -0.004777287059791593 0.3759269695907358 0  -0.8499735021850066 -0.3912320205328522 0  0.1222536293721587 0.2963971539625205 0  -0.3769456520999688 -0.203572526805711 0  -0.2749617205755651 -0.8464290792698902 0  0.004805888512766143 -0.747174355248311 0  -0.125 -1 0  -0.06001061822252458 -0.8724007765244854 0  0.875 0.4375 0  0.854421179608893 0.271342359217786 0  0.875 1 0  -0.1499861095763589 0.2358309656934888 0  0.3381943639137225 0.8663061796405532 0  -0.7853090110442228 0.4998412775277108 0  0.7398165998560814 -0.5535192694951373 0  0.1580042122341573 -0.3100246140259917 0  -0.7291666666666667 -0.7142857142857142 0  -0.375 -1 0  0.6483368386154684 0.8514905990110488 0  -0.1295370103291928 -0.2826118305021242 0  0.07458201853700455 0.1123894386563915 0  0.6146465857036327 -0.3161203659316075 0  0.5551898493894731 -0.740296118159085 0  0.375 -1 0  0.482702798370208 -0.084133350091034 0  0.87890625 0.68359375 0  -0.05917195534525846 0.4971092425697621 0  0.1260710309213975 0.6343750312956699 0  0.8690476190476191 -0.3077066815262848 0  -0.2912010232560567 0.3668168386732139 0  -0.875 1 0  -1 0.875 0  1 -0.875 0  0.875 -1 0  -0.8689564281364567 -0.006189266075306407 0  -0.7449425635110547 0.08458938160051771 0  -0.7150266761936593 -0.1739444581417552 0  -0.5260034831318311 -0.711099823962112 0  -0.4724626808827322 -0.871722230709409 0  0.4734436795977052 0.377714794132168 0  -0.875 -1 0  -1 -0.875 0  0.6927189078571988 0.5156567235715964 0  -0.3742497615796874 -0.4296005251260107 0  -0.1969436423297711 -0.6387157229772615 0  -0.6179496409766825 -0.08933356056510935 0  -0.424405057115988 0.04452428810878029 0  -0.08479048335844169 0.1279607007132633 0  0.003830300099055113 0.8712085230656206 0  0.8748778838820267 -1.379218479898026e-05 0  -0.375 1 0  -0.625 1 0  1 0.125 0  -0.125 1 0  1 -0.375 0  1 -0.125 0  1 -0.625 0  0.625 -1 0  0.125 -1 0  -0.625 -1 0  -1 -0.625 0  -1 0.125 0  -1 0.375 0  -1 0.625 0  1 0.375 0  1 0.625 0  0.6325660748712082 0.3335187599557389 0  -0.06420945895056573 0.7549874027425891 0  -0.8769015540914771 0.2478802253893416 0  0.871875 0.871875 0  -0.6868091492840067 0.3270978624973681 0  -0.5363597469565949 0.412994850055505 0  -0.6803734992638302 0.5574295000651103 0  -0.7076253581162534 -0.8803439094224437 0  -0.8778089002295137 -0.5106896447504627 0  -0.3860184984222981 0.530566778071246 0  0.6109900617121508 0.1128453077697081 0  0.3896945134930274 -0.1915382873255086 0  0.7605656944697778 -0.06822134873122943 0  0.3576151269893478 0.5948388411612135 0  -0.5689902680792265 -0.5143596830118065 0  0.6262446286847614 -0.5735657901943212 0  0.2030558252325225 -0.5625263842513452 0  0.6123273142928579 0.7407533260723429 0  0.4016460890123554 -0.3042863223111857 0  -0.59039693199147 0.7578418819188018 0  0.7276932493917544 -0.3705808024528924 0  0.5222536818742854 -0.4713886230400014 0  -0.5101986527137737 0.8848365765607674 0  0.510560172809238 0.5356013299918891 0  -0.3603569195756083 0.75823710606415 0  0.1967279277813232 0.728226870058472 0  -0.6086880986371127 0.1545624071548516 0  -0.38105366729386 0.1511189987807864 0  -0.2944659463671584 -0.7359061804869591 0  0.5060729154966499 -0.3475227845833823 0  -0.09281616240412746 -0.06197858250969457 0  0.7649739583333334 0.6673177083333334 0  0.7628906249999999 0.890234375 0  -0.2666864184909611 0.2585504071132311 0  0.3635064892129658 0.3878003602709461 0  -0.2339409722222222 0.8901937905844155 0  -0.1718792125974916 -0.8957733325456778 0  0.1001768566329531 0.4023510017391879 0  0.3120260172693757 -0.4540546875576884 0  0.7804062804433681 0.1896628610854537 0  0.4087715451998049 0.187961780041608 0  -0.1584963477271457 0.5451611892421655 0  -0.8926817849258324 0.463022006336401 0  0.2338091473445219 -0.07576267331277289 0  0.08171112182813692 -0.2349087687359925 0  0.04635385178956847 -0.1044635073718474 0  -0.4377391632114205 -0.6448874471423088 0  -0.1907678351227189 0.6480215912813945 0  0.300605946475244 0.4741444604171038 0  -0.2145033720757486 -0.06751709909419711 0  0.6069191921170397 -0.005492331448357812 0  0.0214718770761248 0.6032397936031719 0  0.5476675683364878 0.8992752415326501 0  0.4387475014316537 0.9093708953002239 0  -0.4932997685306436 -0.4381009159993523 0  0.2515197695339056 -0.1791673369138964 0  -0.7291666666666667 -0.6088789682539681 0  -0.9166666666666667 -0.6875 0  0.620579540363709 -0.2122431523583302 0  -0.484950136419973 0.6719440339397442 0  0.2857044415400258 0.0137589173127316 0  -0.8945708364098356 -0.288306105327986 0  0.4043102720140535 0.7842914560451557 0  0.04123256238752064 -0.9026968245801402 0  0.2003676884403109 -0.9091888601740487 0  0.1068775558538842 -0.7373377130403223 0  -0.4804566783514427 -0.1763307203045643 0  0.108286342087769 -0.3993789328997278 0  -0.191883080105361 -0.3640821726430649 0  -0.07025064492006244 0.2984876656890053 0  -0.7039324641409584 0.788312126296613 0  -0.7311286585775438 0.8932502354831682 0  0.5171409396884947 0.1503852691889257 0  0.4229392823658633 -0.003216522184234835 0  -0.5621736087218259 -0.919558629836806 0  -0.626474064879544 -0.7266572613636506 0  0.2446828746617422 0.2867616783302419 0  0.1759429608742923 0.4776611759306416 0  -0.3468240303741654 -0.5260416435617549 0  -0.7465808808425306 0.4069574477998361 0  -0.7819962170660292 0.2802441065650652 0  -0.3742623214119594 -0.8547800509641984 0  0.1014498009713561 0.8506721983266377 0  0.4285217620918213 -0.5230190595570253 0  0.4091738370487775 -0.6256346204225141 0  0.78125 0.46875 0  0.90625 0.53125 0  -0.4791801348852565 0.2553992655702126 0  0.7843318610782772 -0.7086046956885941 0  0.8909728264971901 -0.7355183796514634 0  0.7041908166528879 -0.7830649143180282 0  0.7311821352
[...]
<PointData  Vectors="f_22"> 
<DataArray  type="Float64"  Name="f_22"  NumberOfComponents="3" format="ascii">-2.7741052479750392e-03 -2.8228346113160310e-03 0.0000000000000000e+00  -2.7741052479750392e-03 -2.8228346113160310e-03 0.0000000000000000e+00  -2.7741052479750392e-03 -2.8228346113160310e-03 0.0000000000000000e+00  -2.7741052479750392e-03 -2.8228346113160310e-03 0.0000000000000000e+00  -2.7734277399404164e-03 -2.9815060621831012e-03 0.0000000000000000e+00  -2.9462699827370363e-03 -2.8219932343616539e-03 0.0000000000000000e+00  -2.7734277399404164e-03 -2.9815060621831012e-03 0.0000000000000000e+00  -2.9462699827370363e-03 -2.8219932343616539e-03 0.0000000000000000e+00  -2.9468957590508488e-03 -2.9823584461911162e-03 0.0000000000000000e+00  -1.2171029005770121e-03 -2.8223692777356764e-03 0.0000000000000000e+00  -2.7737587373771414e-03 -1.2592546823303439e-03 0.0000000000000000e+00  -2.7737587373771414e-03 -1.2592546823303439e-03 0.0000000000000000e+00  -4.5032909154046185e-03 -2.8223390738463874e-03 0.0000000000000000e+00  -1.2171029005770121e-03 -2.8223692777356764e-03 0.0000000000000000e+00  -2.7737015737544744e-03 -4.5451816917425406e-03 0.0000000000000000e+00  -4.5032909154046185e-03 -2.8223390738463874e-03 0.0000000000000000e+00  -2.7737015737544744e-03 -4.5451816917425406e-03 0.0000000000000000e+00  -1.2951209731915298e-03 -4.5095596192526784e-03 0.0000000000000000e+00  -4.4692822988912093e-03 -1.3356018166262292e-03 0.0000000000000000e+00  -1.2174205803263394e-03 -1.7970485558221759e-03 0.0000000000000000e+00  -4.0833873851663953e-03 -4.5453860180583181e-03 0.0000000000000000e+00  -2.5890412672784444e-03 -1.2643733223174373e-03 0.0000000000000000e+00  -4.5009685603142249e-03 -3.3548578525889891e-03 0.0000000000000000e+00  -1.3095584094672747e-03 -1.3541708899642601e-03 0.0000000000000000e+00  -4.3455018586165276e-03 -4.3898879160352055e-03 0.0000000000000000e+00  -1.7591067961587709e-03 -4.0518595206391981e-03 0.0000000000000000e+00  -3.9373354198617601e-03 -1.5544978990170975e-03 0.0000000000000000e+00  -4.0054297272639986e-03 -1.7965117427223062e-03 0.0000000000000000e+00  -1.3265155650565778e-03 -3.5114727455374446e-03 0.0000000000000000e+00  -1.4190606166752415e-03 -4.2550687544365478e-03 0.0000000000000000e+00  -4.2096012163638412e-03 -1.4647673894169690e-03 0.0000000000000000e+00  -2.5890564762013541e-03 -4.3964957563070719e-03 0.0000000000000000e+00  -1.5673231852512107e-03 -1.6059239608985025e-03 0.0000000000000000e+00  -4.0366423637705779e-03 -4.3171436476595179e-03 0.0000000000000000e+00  -1.5111312130122335e-03 -3.0877312106482339e-03 0.0000000000000000e+00  -3.6723064958155346e-03 -1.7259496380078664e-03 0.0000000000000000e+00  -1.5619868592764725e-03 -4.4685032707016013e-03 0.0000000000000000e+00  -2.0703495226073883e-03 -1.9050183852727517e-03 0.0000000000000000e+00  -3.8493399738612263e-03 -4.0046223774581726e-03 0.0000000000000000e+00  -4.4114553468812701e-03 -4.0076716637441395e-03 0.0000000000000000e+00  -1.6731922300429623e-03 -2.2488006659616825e-03 0.0000000000000000e+00  -3.1658413863146118e-03 -4.1549524972160122e-03 0.0000000000000000e+00  -2.7739661142463304e-03 -1.6844156349259188e-03 0.0000000000000000e+00  -1.6375501559296717e-03 -2.8226875425194213e-03 0.0000000000000000e+00  -3.9611104948863085e-03 -2.8226411878921700e-03 0.0000000000000000e+00  -2.7739751524160348e-03 -4.0077638995388645e-03 0.0000000000000000e+00  -2.7081516124798531e-03 -1.6631745702063115e-03 0.0000000000000000e+00  -1.4742910233826701e-03 -1.2816831234705990e-03 0.0000000000000000e+00  -4.5056064311899758e-03 -4.4979743815534590e-03 0.0000000000000000e+00  -2.7735057341836569e-03 -4.1200940868812430e-03 0.0000000000000000e+00  -2.7735092153347587e-03 -1.7965822329525380e-03 0.0000000000000000e+00  -2.7739661142463304e-03 -1.6844156349259188e-03 0.0000000000000000e+00  -2.7739751524160348e-03 -4.0077638995388645e-03 0.0000000000000000e+00  -1.7591897895114538e-03 -2.8221211386715030e-03 0.0000000000000000e+00  -4.0828872985926691e-03 -2.8220924847524942e-03 0.0000000000000000e+00  -1.7591897895114538e-03 -2.8221211386715030e-03 0.0000000000000000e+00  -2.7735092153347587e-03 -1.7965822329525380e-03 0.0000000000000000e+00  -1.6375501559296717e-03 -2.8226875425194213e-03 0.0000000000000000e+00  -3.9611104948863085e-03 -2.8226411878921700e-03 0.0000000000000000e+00  -2.7735057341836569e-03 -4.1200940868812430e-03 0.0000000000000000e+00  -4.0828872985926691e-03 -2.8220924847524942e-03 0.0000000000000000e+00  -1.6716939750704390e-03 -1.3569617948973854e-03 0.0000000000000000e+00  -3.9303504349785783e-03 -3.3132951055030785e-03 0.0000000000000000e+00  -4.4259392907123815e-03 -2.1932751750293579e-03 0.0000000000000000e+00  -4.4906496676519756e-03 -1.4077580905318438e-03 0.0000000000000000e+00  -3.7029540721747658e-03 -1.2612448607718875e-03 0.0000000000000000e+00  -3.8599459211890765e-03 -1.2715449325825577e-03 0.0000000000000000e+00  -1.2464280111769729e-03 -4.3547068286552510e-03 0.0000000000000000e+00  -1.8953793060380471e-03 -4.5385209423938165e-03 0.0000000000000000e+00  -3.9866231424647578e-03 -2.9705869295592398e-03 0.0000000000000000e+00  -2.1796682179797320e-03 -3.7197014996523305e-03 0.0000000000000000e+00  -1.2609538107881801e-03 -3.9390956540663073e-03 0.0000000000000000e+00  -4.3394263635278697e-03 -2.5456255246236073e-03 0.0000000000000000e+00  -4.3915829804167458e-03 -2.0260727439712096e-03 0.0000000000000000e+00  -1.3094462226569824e-03 -2.0119875649271032e-03 0.0000000000000000e+00  -1.9203138175869635e-03 -1.3078742009394865e-03 0.0000000000000000e+00  -1.2179456330575268e-03 -1.2958481690851916e-03 0.0000000000000000e+00  -4.4551316017071955e-03 -3.7488052286407049e-03 0.0000000000000000e+00  -3.8360667465715276e-03 -3.8831072105720860e-03 0.0000000000000000e+00  -3.7790872444309447e-03 -4.5424001625229849e-03 0.0000000000000000e+00  -1.9849569441215708e-03 -3.6042867895248729e-03 0.0000000000000000e+00  -1.9007020597781861e-03 -1.9484529170180527e-03 0.0000000000000000e+00  -1.2492831149569254e-03 -2.5819374697709820e-03 0.0000000000000000e+00  -3.2010515006059962e-03 -4.5424723545912093e-03 0.0000000000000000e+00  -1.6631900893902089e-03 -4.2547245867913270e-03 0.0000000000000000e+00  -1.2576995208078085e-03 -4.5406193179985286e-03 0.0000000000000000e+00  -2.0756881006596616e-03 -4.3895379519674239e-03 0.0000000000000000e+00  -1.8895614468981158e-03 -3.7338491770419883e-03 0.0000000000000000e+00  -4.4387901130639408e-03 -1.2571678463437781e-03 0.0000000000000000e+00  -4.3450607709627914e-03 -2.1237842808464161e-03 0.0000000000000000e+00  -3.6872878133476991e-03 -1.9339552081867621e-03 0.0000000000000000e+00  -1.3090857978249274e-03 -3.5364455676809353e-03 0.0000000000000000e+00  -4.4753793490922020e-03 -1.7265661706453495e-03 0.0000000000000000e+00  -1.2577975407044523e-03 -3.6958356899830002e-03 0.0000000000000000e+00  -4.4957839040740818e-03 -4.4687252602460545e-03 0.0000000000000000e+00  -2.3108644607083839e-03 -3.4856167345691763e-03 0.0000000000000000e+00  -3.4376130235628695e-03 -2.3467488657208701e-03 0.0000000000000000e+00  -3.5684493976201998e-03 -2.1726806567260388e-03 0.0000000000000000e+00  -3.5685672456719220e-03 -3.4827097960538345e-03 0.0000000000000000e+00  -3.4277152450565649e-03 -1.3538453744275337e-03 0.0000000000000000e+00  -4.4326573243088224e-03 -4.0634196704460758e-03 0.0000000000000000e+00  -4.4510558768482839e-03 -4.1043704310324723e-03 0.0000000000000000e+00  -3.0510456345078040e-03 -3.8207821918018465e-03 0.0000000000000000e+00  -1.2329320556663905e-03 -4.3433142410736628e-03 0.0000000000000000e+00  -1.2251198802430460e-03 -1.6146519534587704e-03 0.0000000000000000e+00  -1.3751047498335998e-03 -2.8222166546117162e-03 0.0000000000000000e+00  -1.9100353395640160e-03 -1.2923181411767927e-03 0.0000000000000000e+00  -3.9582669998812336e-03 -4.2661882126385827e-03 0.0000000000000000e+00  -2.7735962418880674e-03 -4.4505002847985333e-03 0.0000000000000000e+00  -4.2357290955815459e-03 -1.2824057324484816e-03 0.0000000000000000e+00  -2.3109132856378549e-03 -2.8219854869645476e-03 0.0000000000000000e+00  -2.0190102136024824e-03 -2.0643227271026693e-03 0.0000000000000000e+00  -2.8223932043824449e-03 -1.5747260978353269e-03 0.0000000000000000e+00  -1.4800536182174567e-03 -1.6538392403232550e-03 0.0000000000000000e+00  -1.2867128828467460e-03 -2.4333105407316757e-03 0.0000000000000000e+00  -2.1204520601295867e-03 -2.7220634043800141e-03 0.0000000000000000e+00  -2.3780175352960844e-03 -4.3397623027511311e-03 0.0000000000000000e+00  -4.3107866485557547e-03 -4.5441098624285480e-03 0.0000000000000000e+00  -3.4203498076873081e-03 -4.4052978035104065e-03 0.0000000000000000e+00  -3.1462316099859673e-03 -1.3237047411211813e-03 0.0000000000000000e+00  -3.4376454924484137e-03 -1.4928694390341248e-03 0.0000000000000000e+00  -2.7738078598600027e-03 -4.3897152739004377e-03 0.0000000000000000e+00  -3.0856635846013602e-03 -2.1799490446319804e-03 0.0000000000000000e+00  -1.2252535424594731e-03 -3.2202045286868980e-03 0.0000000000000000e+00  -3.4093867005446539e-03 -2.8227194095247284e-03 0.0000000000000000e+00  -4.2883422038073856e-03 -1.3960647584487450e-03 0.0000000000000000e+00  -4.1271031346253048e-03 -1.4090308926922436e-03 0.0000000000000000e+00  -1.3340920081548059e-03 -1.3187201316547602e-03 0.0000000000000000e+00  -2.7734552988970349e-03 -3.6042298899199784e-03 0.0000000000000000e+00  -3.5495937114972272e-03 -3.9365450520744910e-03 0.0000000000000000e+00  -2.0186603792210238e-03 -4.2255989265217783e-03 0.0000000000000000e+00  -1.3163928147934077e-03 -1.5329106268101751e-03 0.0000000000000000e+00  -4.1778885301910762e-03 -4.3943401354131521e-03 0.0000000000000000e+00  -2.0407911092403014e-03 -4.5459828261142652e-03 0.0000000000000000e+00  -1.4880979098321379e-03 -4.0791763822202809e-03 0.0000000000000000e+00  -4.4129741465696402e-03 -2.9574844287026214e-03 0.0000000000000000e+00  -1.3411233900819566e-03 -2.0851890422509821e-03 0.0000000000000000e+00  -4.2303346223680552e-03 -3.5921643887619321e-03 0.0000000000000000e+00  -1.9492283944467911e-03 -1.4108580379086752e-03 0.0000000000000000e+00  -2.0213350008726565e-03 -1.7047060504619311e-03 0.0000000000000000e+00  -1.6273190678867911e-03 -3.0064534808905614e-03 0.0000000000000000e+00  -2.7734353115038820e-03 -2.3467850892520993e-03 0.0000000000000000e+00  -2.1392044081638716e-03 -2.6722502696070976e-03 0.0000000000000000e+00  -4.4886651617626399e-03 -3.4572630008651065e-03 0.0000000000000000e+00  -4.1540472952771683e-03 -3.5559499639127206e-03 0.0000000000000000e+00  -2.7740346682751144e-03 -3.4575265764773943e-03 0.0000000000000000e+00  -4.0330335417470015e-03 -2.2276494276096967e-03 0.0000000000000000e+00  -3.4512813540752128e-03 -4.3762152266622655e-03 0.0000000000000000e+00  -4.5030605008735116e-03 -1.8136496759469701e-03 0.0000000000000000e+00  -1.2255639708267823e-03 -4.0456432371117545e-03 0.0000000000000000e+00  -1.5497680230334928e-03 -3.7549569291927981e-03 0.0000000000000000e+00  -1.5221416994367699e-03 -1.6147941865954651e-03 0.0000000000000000e+00  -2.7736241118527798e-03 -1.4146934282374304e-03 0.0000000000000000e+00  -3.5223023590232713e-03 -4.3343918182116399e-03 0.0000000000000000e+00  -1.6404351751067804e-03 -2.3255091562361871e-03 0.0000000000000000e+00  -3.5097714034362476e-03 -3.3616274473561437e-03 0.0000000000000000e+00  -1.5305821607458838e-03 -4.4112230473386041e-03 0.0000000000000000e+00  -1.6039724794435653e-03 -4.5065617104696823e-03 0.0000000000000000e+00  -2.7735962418880674e-03 -4.4505002847985333e-03 0.0000000000000000e+00  -2.5142540740850134e-03 -4.5470017657174896e-03 0.0000000000000000e+00  -4.1905939940848486e-03 -3.4384406220890240e-03 0.0000000000000000e+00  -4.5038895790766899e-03 -2.6769178191355710e-03 0.0000000000000000e+00  -4.3235923451097327e-03 -3.6096221649532401e-03 0.0000000000000000e+00  -1.5566768916499931e-03 -3.4856362479270650e-03 0.0000000000000000e+00  -4.3964472655821946e-03 -1.6487601067509152e-03 0.0000000000000000e+00  -2.7740748276039425e-03 -2.2002025569281547e-03 0.0000000000000000e+00  -3.4093867005446539e-03 -2.8227194095247284e-03 0.0000000000000000e+00  -2.1519229593903299e-03 -2.8228011303899560e-03 0.0000000000000000e+00  -2.7740346682751144e-03 -3.4575265764773943e-03 0.0000000000000000e+00  -2.9143476365771047e-03 -2.1712992028047389e-03 0.0000000000000000e+00  -3.3748503102749481e-03 -1.6662995283745958e-03 0.0000000000000000e+00  -2.0801235164395206e-03 -1.5701585887487185e-03 0.0000000000000000e+00  -1.5125569194981837e-03 -1.2585213342951962e-03 0.0000000000000000e+00  -2.1365754012035560e-03 -1.2723908454496727e-03 0.0000000000000000e+00  -4.4162744177075079e-03 -4.5464101076347933e-03 0.0000000000000000e+00  -2.7740748276039425e-03 -2.2002025569281547e-03 0.0000000000000000e+00  -2.1519229593903299e-03 -2.8228011303899560e-03 0.0000000000000000e+00  -4.4973811525757914e-03 -4.2079780615405550e-03 0.0000000000000000e+00  -1.2764776933060092e-03 -1.4167976778028315e-03 0.0000000000000000e+00  -1.3343309930840535e-03 -2.0143112172543464e-03 0.0000000000000000e+00  -2.4881146139038223e-03 -1.3418218977376078e-03 0.0000000000000000e+00  -3.1748925458406985e-03 -1.3241775468892342e-03 0.0000000000000000e+00  -3.5829064315512473e-03 -2.5470257688153912e-03 0.0000000000000000e+00  -3.4271410810590482e-03 -3.0013417937167536e-03 0.0000000000000000e+00  -2.9462085724903846e-03 -3.4573908392667623e-03 0.0000000000000000e+00  -2.7736241118527798e-03 -1.4146934282374304e-03 0.0000000000000000e+00  -2.7738344236798267e-03 -1.3539808151972602e-03 0.0000000000000000e+00  -3.5684576672217624e-03 -2.8220358102741126e-03 0.0000000000000000e+00  -2.7734353115038820e-03 -2.3467850892520993e-03 0.0000000000000000e+00  -1.3751047498335998e-03 -2.8222166546117162e-03 0.0000000000000000e+00  -2.3109132856378549e-03 -2.8219854869645476e-03 0.0000000000000000e+00  -1.3092755486523631e-03 -2.8224953482025822e-03 0.0000000000000000e+00  -2.7738078598600027e-03 -4.3897152739004377e-03 0.0000000000000000e+00  -2.7734552988970349e-03 -3.6042298899199784e-03 0.0000000000000000e+00  -2.7738344236798267e-03 -1.3539808151972602e-03 0.0000000000000000e+00  -1.3092755486523631e-03 -2.8224953482025822e-03 0.0000000000000000e+00  -3.5684576672217624e-03 -2.8220358102741126e-03 0.0000000000000000e+00  -4.4111685425939013e-03 -2.8222205335672467e-03 0.0000000000000000e+00  -4.3452554976059002e-03 -2.8225272395904395e-03 0.0000000000000000e+00  -4.4111685425939013e-03 -2.8222205335672467e-03 0.0000000000000000e+00  -4.3452554976059002e-03 -2.8225272395904395e-03 0.0000000000000000e+00  -4.3270666503753717e-03 -4.3726247391574248e-03 0.0000000000000000e+00  -3.9412784230596328e-03 -2.6508402697948187e-03 0.0000000000000000e+00  -4.0754931947118642e-03 -2.2082582436349493e-03 0.0000000000000000e+00  -3.4246592434707289e-03 -3.4726911678871668e-03 0.0000000000000000e+00  -4.3111172434153302e-03 -1.4896051656809811e-03 0.0000000000000000e+00  -4.4652144651091781e-03 -1.2605346465287702e-03 0.0000000000000000e+00  -4.4607585544948602e-03 -1.4729881425203629e-03 0.0000000000000000e+00  -2.1769304952357306e-03 -1.5485313839309670e-03 0.0000000000000000e+00  -1.2153044409202618e-03 -2.2130777435150997e-03 0.0000000000000000e+00  -4.4869763786707390e-03 -1.3911015730686841e-03 0.0000000000000000e+00  -3.5116921683646190e-03 -4.4189921129006143e-03 0.0000000000000000e+00  -2.0012145076694372e-03 -4.4745488245687267e-03 0.0000000000000000e+00  -2.5948517339375492e-03 -3.9660734075248746e-03 0.0000000000000000e+00  -4.4057945062925619e-03 -4.4182517145203784e-03 0.0000000000000000e+00  -1.2153082292783617e-03 -1.2808836215049038e-03 0.0000000000000000e+00  -1.2406656584775292e-03 -4.3864774495758476e-03 0.0000000000000000e+00  -1.2315476743377056e-03 -3.9444889642237073e-03 0.0000000000000000e+00  -3.9962880145485193e-03 -4.4166461835980064e-03 0.0000000000000000e+00  -1.5676221593857776e-03 -4.4914440565691095e-03 0.0000000000000000e+00  -3.9301233000659727e-03 -1.3025953292391760e-03 0.0000000000000000e+00  -1.3848549216080618e-03 -4.0896559724610650e-03 0.0000000000000000e+00  -1.2311077988601900e-03 -4.5352189791712828e-03 0.0000000000000000e+00  -3.3606833745105395e-03 -1.2574490733602128e-03 0.0000000000000000e+00  -4.4837423388218011e-03 -4.5419190321143261e-03 0.0000000000000000e+00  -3.9284190125163610e-03 -1.4484056636968963e-03 0.0000000000000000e+00  -4.0419105542867399e-03 -3.9191347435153451e-03 0.0000000000000000e+00  -3.7032152200354527e-03 -1.3271097781264473e-03 0.0000000000000000e+00  -3.6881062877774334e-03 -1.4017385012096808e-03 0.0000000000000000e+00  -1.5899053572491560e-03 -1.6380138846508073e-03 0.0000000000000000e+00  -1.4415333984054374e-03 -4.5430204465942850e-03 0.0000000000000000e+00  -2.6273811813089438e-03 -2.5066776453168964e-03 0.0000000000000000e+00  -4.2384246040784047e-03 -3.9493175987479739e-03 0.0000000000000000e+00  -3.3345578020447914e-03 -3.9576185174579181e-03 0.0000000000000000e+00  -4.1121665404059635e-03 -1.7345759477016623e-03 0.0000000000000000e+00  -4.4324725641474959e-03 -4.4299387754800660e-03 0.0000000000000000e+00  -3.3340323632306094e-03 -1.8593438041662413e-03 0.0000000000000000e+00  -2.2497607507624790e-03 -2.1256469003595423e-03 0.0000000000000000e+00  -4.4528635920937443e-03 -3.4868939800704311e-03 0.0000000000000000e+00  -1.2463351393720372e-03 -4.3111398904503778e-03 0.0000000000000000e+00  -3.8537771462932198e-03 -3.8861190297426996e-03 0.0000000000000000e+00  -3.8471707954122209e-03 -4.5009726401155671e-03 0.0000000000000000e+00  -4.4742616858686321e-03 -2.1874295217327645e-03 0.0000000000000000e+00  -4.5020669530765854e-03 -2.2832092931175428e-03 0.0000000000000000e+00  -2.5569961535925139e-03 -4.0628654456255874e-03 0.0000000000000000e+00  -1.8188180961087696e-03 -3.3967947820878306e-03 0.0000000000000000e+00  -2.4127134370567145e-03 -3.2199403674776353e-03 0.0000000000000000e+00  -1.3468016843493486e-03 -1.3063411570815645e-03 0.0000000000000000e+00  -4.2896515240397571e-03 -2.0410277087588606e-03 0.0000000000000000e+00  -4.5051980766361594e-03 -4.2802847837070529e-03 0.0000000000000000e+00  -2.5990802278371894e-03 -1.9396633558048011e-03 0.0000000000000000e+00  -2.9181420630305399e-03 -4.4268738848208646e-03 0.0000000000000000e+00  -4.3899415860557157e-03 -3.0924628451607606e-03 0.0000000000000000e+00  -3.2894789659815337e-03 -4.5150366511181404e-03 0.0000000000000000e+00  -3.2387817784933571e-03 -4.5301264575526119e-03 0.0000000000000000e+00  -1.2651858070214870e-03 -1.2616281380500882e-03 0.0000000000000000e+00  -2.0565432245837675e-03 -4.1257517912766384e-03 0.0000000000000000e+00  -1.2837156475773933e-03 -1.6147675750696857e-03 0.0000000000000000e+00  -1.4463284308543218e-03 -2.4002595347743590e-03 0.0000000000000000e+00  -1.9115769005748323e-03 -4.3988136744616850e-03 0.0000000000000000e+00  -4.2244326894817046e-03 -1.2645837926386391e-03 0.0000000000000000e+00  -3.0177713674638010e-03 -4.2367113091683504e-03 0.0000000000000000e+00  -1.6204732884692210e-03 -2.2923555263588600e-03 0.0000000000000000e+00  -3.8232335962234249e-03 -4.4952104673604840e-03 0.0000000000000000e+00  -2.2829569028752390e-03 -3.1930531473852858e-03 0.0000000000000000e+00  -2.3144993337934354e-03 -3.9335893735365571e-03 0.0000000000000000e+00  -1.5941358528729333e-03 -3.5185462871667691e-03 0.0000000000000000e+00  -2.0695899956609492e-03 -1.2674375831120024e-03 0.0000000000000000e+00  -1.3253568117158174e-03 -3.5256560786835860e-03 0.0000000000000000e+00  -1.4007450056883334e-03 -2.0367242328088531e-03 0.0000000000000000e+00  -4.2361066835105961e-03 -2.6206119490478261e-03 0.0000000000000000e+00  -3.8059506985125466e-03 -1.5374407139575931e-03 0.0000000000000000e+00  -3.3193305852779490e-03 -1.6209315777788820e-03 0.0000000000000000e+00  -3.6850437872727130e-03 -4.5386070904046508e-03 0.0000000000000000e+00  -2.9300704082735880e-03 -4.5164749847732017e-03 0.0000000000000000e+00  -2.3658873655405563e-03 -1.2751820850359784e-03 0.0000000000000000e+00  -1.5603496554272424e