<?xml version="1.0"?>
<VTKFile type="UnstructuredGrid"  version="0.1"  >
<UnstructuredGrid>
<Piece  NumberOfPoints="1380" NumberOfCells="2630">
<Points>
<DataArray  type="Float64"  NumberOfComponents="3"  format="ascii">-1 -1 0  1 -1 0  1 1 0  -1 1 0  0 -1 0  1 0 0  0 1 0  -1 0 0  0 0 0  -1 -0.5 0  -0.5 -1 0  -0.5 1 0  -1 0.5 0  1 -0.5 0  0.5 -1 0  1 0.5 0  0.5 1 0  0.4166666666666666 -0.4166666666666667 0  -0.4166666666666667 0.4166666666666667 0  -0.25 -0.5 0  0.5 0.25 0  -0.4861111111111112 -0.06944444444444445 0  0.0732758620689655 0.507183908045977 0  -0.625 -0.625 0  0.625 0.625 0  0.7380952380952381 -0.25 0  -0.7099116161616161 0.2105429292929293 0  -0.25 0.7380952380952381 0  0.105392156862745 -0.6348039215686275 0  0.6770833333333334 -0.6770833333333333 0  -0.6770833333333334 0.6770833333333334 0  0.3472222222222222 -0.06944444444444446 0  -0.7264957264957265 -0.3044871794871795 0  0.3141940982507127 0.7297313660835709 0  0.02049587951122483 -0.3227479397556124 0  -0.2690972222222223 0.1475694444444444 0  0.3859500089908372 -0.7274430156831472 0  -0.2228477945123298 -0.1761765495248019 0  0.2182539682539683 0.1884920634920635 0  0.75 0.375 0  -0.145442219440968 -0.7602211097204841 0  0.7088913690476191 0.0427827380952381 0  -0.75 -1 0  -1 -0.75 0  1 0.75 0  0.75 1 0  -0.7439982703698937 -0.04614153195464455 0  -0.4609235096577606 -0.3356498099556895 0  0.4063134471431929 0.4895621842856023 0  0.25 -1 0  -0.25 -1 0  -0.75 1 0  0.75 -1 0  -1 -0.25 0  -1 0.25 0  1 -0.25 0  -0.25 1 0  1 -0.75 0  -1 0.75 0  0.25 1 0  1 0.25 0  -0.4041423272138783 -0.7597141090712928 0  0.06500839607911253 0.7578103030529481 0  -0.1572801182352047 0.3838997021864289 0  -0.6528005242053915 0.4409494757946086 0  -0.4930160984848485 0.1544744318181818 0  -0.4732142857142858 0.7752976190476191 0  0.6398809523809523 -0.4538690476190476 0  0.5166054117396399 -0.2161233620965164 0  -0.002273787244753427 0.2232363985975174 0  0.1500564496765022 -0.1524955293952667 0  0.2016720420046758 -0.4410343282803009 0  -0.08495178036419618 0.6274139771124571 0  -0.8367311471133162 0.3642591720794645 0  -0.8333333333333334 -0.625 0  -0.594323836800685 -0.8231079456002283 0  -0.4466957714776065 -0.5349126855671806 0  0.8125 0.5625 0  0.78125 0.78125 0  0.5091392650016769 0.7947130883338923 0  0.125 -0.8382681931833136 0  -0.8184523809523809 -0.8184523809523809 0  -0.07781530426104531 -0.5819319697006881 0  0.5085055196703295 0.04967610411902112 0  0.2918471072074933 -0.276017202318847 0  0.5120763537765269 -0.5898771553229597 0  0.625 -0.8585349462365591 0  0.8158532234335381 -0.8158532234335381 0  -0.5198088446315396 0.5739411553684605 0  -0.8585349462365591 0.625 0  -0.8150493805516597 0.8156205699829586 0  0.8585349462365591 -0.625 0  -0.2688268348649726 0.5439331383603209 0  0.8242100426758139 -0.4436043596336612 0  0.5833756314287952 0.4479378157143976 0  0.8690476190476191 -0.125 0  -0.125 0.8690476190476191 0  -0.8692745600729823 0.125 0  0.8696725120759167 0.125 0  -0.625 0.8711516477451908 0  0.2339522463269718 0.3879558377955778 0  0.2453709502295031 0.5655822922838026 0  0.1730610651637797 0.02021709580868947 0  0.3245402594056757 -0.5644672020485209 0  -0.7291666666666666 -0.4816595441595442 0  -1 -0.375 0  -0.5811140848639904 -0.2127276307675001 0  0.673332592838314 0.2158348143233718 0  0.375 1 0  -0.5714768890989919 0.2985103444040069 0  -1 -0.125 0  -0.8453692574786325 -0.1875 0  -0.3144549134065865 -0.02408675326008025 0  -0.2898414972096258 -0.3336092734780093 0  -0.1075052092206287 -0.4224330421314983 0  -0.05043970703604117 -0.1652278959397459 0  0.6459672950297897 -0.1113415301525317 0  0.4645210271029513 0.6398480556579343 0  0.3512863754411909 0.0937979496253573 0  -0.6063160985568274 0.03891469652249891 0  -0.3428819444444445 0.8690476190476191 0  0.625 1 0  -0.1602164796159982 0.02697860906625157 0  0.04648110064133829 -0.4808416424239687 0  1 0.875 0  -0.3836102479201657 0.6484936449177356 0  -0.3776011723096096 0.263078478984336 0  -0.6024978259969829 -0.3949628096211138 0  0.125 1 0  0.2010781308272777 0.8456221018461906 0  0.2822509696388829 -0.845902544691141 0  -0.3285533674953515 -0.6289773550938936 0  0.3461306793221754 0.278777492464833 0  0.4737475672408696 -0.8508448959534423 0  0.2384632828836344 -0.7029523187242811 0  -0.004777287059791593 0.3759269695907358 0  -0.8499735021850066 -0.3912320205328522 0  0.1222536293721587 0.2963971539625205 0  -0.3769456520999688 -0.203572526805711 0  -0.2749617205755651 -0.8464290792698902 0  0.004805888512766143 -0.747174355248311 0  -0.125 -1 0  -0.06001061822252458 -0.8724007765244854 0  0.875 0.4375 0  0.854421179608893 0.271342359217786 0  0.875 1 0  -0.1499861095763589 0.2358309656934888 0  0.3381943639137225 0.8663061796405532 0  -0.7853090110442228 0.4998412775277108 0  0.7398165998560814 -0.5535192694951373 0  0.1580042122341573 -0.3100246140259917 0  -0.7291666666666667 -0.7142857142857142 0  -0.375 -1 0  0.6483368386154684 0.8514905990110488 0  -0.1295370103291928 -0.2826118305021242 0  0.07458201853700455 0.1123894386563915 0  0.6146465857036327 -0.3161203659316075 0  0.5551898493894731 -0.740296118159085 0  0.375 -1 0  0.482702798370208 -0.084133350091034 0  0.87890625 0.68359375 0  -0.05917195534525846 0.4971092425697621 0  0.1260710309213975 0.6343750312956699 0  0.8690476190476191 -0.3077066815262848 0  -0.2912010232560567 0.3668168386732139 0  -0.875 1 0  -1 0.875 0  1 -0.875 0  0.875 -1 0  -0.8689564281364567 -0.006189266075306407 0  -0.7449425635110547 0.08458938160051771 0  -0.7150266761936593 -0.1739444581417552 0  -0.5260034831318311 -0.711099823962112 0  -0.4724626808827322 -0.871722230709409 0  0.4734436795977052 0.377714794132168 0  -0.875 -1 0  -1 -0.875 0  0.6927189078571988 0.5156567235715964 0  -0.3742497615796874 -0.4296005251260107 0  -0.1969436423297711 -0.6387157229772615 0  -0.6179496409766825 -0.08933356056510935 0  -0.424405057115988 0.04452428810878029 0  -0.08479048335844169 0.1279607007132633 0  0.003830300099055113 0.8712085230656206 0  0.8748778838820267 -1.379218479898026e-05 0  -0.375 1 0  -0.625 1 0  1 0.125 0  -0.125 1 0  1 -0.375 0  1 -0.125 0  1 -0.625 0  0.625 -1 0  0.125 -1 0  -0.625 -1 0  -1 -0.625 0  -1 0.125 0  -1 0.375 0  -1 0.625 0  1 0.375 0  1 0.625 0  0.6325660748712082 0.3335187599557389 0  -0.06420945895056573 0.7549874027425891 0  -0.8769015540914771 0.2478802253893416 0  0.871875 0.871875 0  -0.6868091492840067 0.3270978624973681 0  -0.5363597469565949 0.412994850055505 0  -0.6803734992638302 0.5574295000651103 0  -0.7076253581162534 -0.8803439094224437 0  -0.8778089002295137 -0.5106896447504627 0  -0.3860184984222981 0.530566778071246 0  0.6109900617121508 0.1128453077697081 0  0.3896945134930274 -0.1915382873255086 0  0.7605656944697778 -0.06822134873122943 0  0.3576151269893478 0.5948388411612135 0  -0.5689902680792265 -0.5143596830118065 0  0.6262446286847614 -0.5735657901943212 0  0.2030558252325225 -0.5625263842513452 0  0.6123273142928579 0.7407533260723429 0  0.4016460890123554 -0.3042863223111857 0  -0.59039693199147 0.7578418819188018 0  0.7276932493917544 -0.3705808024528924 0  0.5222536818742854 -0.4713886230400014 0  -0.5101986527137737 0.8848365765607674 0  0.510560172809238 0.5356013299918891 0  -0.3603569195756083 0.75823710606415 0  0.1967279277813232 0.728226870058472 0  -0.6086880986371127 0.1545624071548516 0  -0.38105366729386 0.1511189987807864 0  -0.2944659463671584 -0.7359061804869591 0  0.5060729154966499 -0.3475227845833823 0  -0.09281616240412746 -0.06197858250969457 0  0.7649739583333334 0.6673177083333334 0  0.7628906249999999 0.890234375 0  -0.2666864184909611 0.2585504071132311 0  0.3635064892129658 0.3878003602709461 0  -0.2339409722222222 0.8901937905844155 0  -0.1718792125974916 -0.8957733325456778 0  0.1001768566329531 0.4023510017391879 0  0.3120260172693757 -0.4540546875576884 0  0.7804062804433681 0.1896628610854537 0  0.4087715451998049 0.187961780041608 0  -0.1584963477271457 0.5451611892421655 0  -0.8926817849258324 0.463022006336401 0  0.2338091473445219 -0.07576267331277289 0  0.08171112182813692 -0.2349087687359925 0  0.04635385178956847 -0.1044635073718474 0  -0.4377391632114205 -0.6448874471423088 0  -0.1907678351227189 0.6480215912813945 0  0.300605946475244 0.4741444604171038 0  -0.2145033720757486 -0.06751709909419711 0  0.6069191921170397 -0.005492331448357812 0  0.0214718770761248 0.6032397936031719 0  0.5476675683364878 0.8992752415326501 0  0.4387475014316537 0.9093708953002239 0  -0.4932997685306436 -0.4381009159993523 0  0.2515197695339056 -0.1791673369138964 0  -0.7291666666666667 -0.6088789682539681 0  -0.9166666666666667 -0.6875 0  0.620579540363709 -0.2122431523583302 0  -0.484950136419973 0.6719440339397442 0  0.2857044415400258 0.0137589173127316 0  -0.8945708364098356 -0.288306105327986 0  0.4043102720140535 0.7842914560451557 0  0.04123256238752064 -0.9026968245801402 0  0.2003676884403109 -0.9091888601740487 0  0.1068775558538842 -0.7373377130403223 0  -0.4804566783514427 -0.1763307203045643 0  0.108286342087769 -0.3993789328997278 0  -0.191883080105361 -0.3640821726430649 0  -0.07025064492006244 0.2984876656890053 0  -0.7039324641409584 0.788312126296613 0  -0.7311286585775438 0.8932502354831682 0  0.5171409396884947 0.1503852691889257 0  0.4229392823658633 -0.003216522184234835 0  -0.5621736087218259 -0.919558629836806 0  -0.626474064879544 -0.7266572613636506 0  0.2446828746617422 0.2867616783302419 0  0.1759429608742923 0.4776611759306416 0  -0.3468240303741654 -0.5260416435617549 0  -0.7465808808425306 0.4069574477998361 0  -0.7819962170660292 0.2802441065650652 0  -0.3742623214119594 -0.8547800509641984 0  0.1014498009713561 0.8506721983266377 0  0.4285217620918213 -0.5230190595570253 0  0.4091738370487775 -0.6256346204225141 0  0.78125 0.46875 0  0.90625 0.53125 0  -0.4791801348852565 0.2553992655702126 0  0.7843318610782772 -0.7086046956885941 0  0.8909728264971901 -0.7355183796514634 0  0.7041908166528879 -0.7830649143180282 0  0.7311821352
[...]
<PointData  Vectors="f_22"> 
<DataArray  type="Float64"  Name="f_22"  NumberOfComponents="3" format="ascii">-2.8557183886935428e-03 -2.8979971075349829e-03 0.0000000000000000e+00  -2.8557183886935428e-03 -2.8979971075349829e-03 0.0000000000000000e+00  -2.8557183886935428e-03 -2.8979971075349829e-03 0.0000000000000000e+00  -2.8557183886935428e-03 -2.8979971075349829e-03 0.0000000000000000e+00  -2.8557171195332720e-03 -2.9064340962860376e-03 0.0000000000000000e+00  -2.8646339995750504e-03 -2.8979957945838787e-03 0.0000000000000000e+00  -2.8557171195332720e-03 -2.9064340962860376e-03 0.0000000000000000e+00  -2.8646339995750504e-03 -2.8979957945838787e-03 0.0000000000000000e+00  -2.8646336992764064e-03 -2.9064362790324331e-03 0.0000000000000000e+00  -2.8074875180387976e-03 -2.8979961789615503e-03 0.0000000000000000e+00  -2.8557183488708382e-03 -2.8495247027492338e-03 0.0000000000000000e+00  -2.8557183488708382e-03 -2.8495247027492338e-03 0.0000000000000000e+00  -2.9128655705422178e-03 -2.8979952476096160e-03 0.0000000000000000e+00  -2.8074875180387976e-03 -2.8979961789615503e-03 0.0000000000000000e+00  -2.8557167560426164e-03 -2.9549100336649756e-03 0.0000000000000000e+00  -2.9128655705422178e-03 -2.8979952476096160e-03 0.0000000000000000e+00  -2.8557167560426164e-03 -2.9549100336649756e-03 0.0000000000000000e+00  -2.8104360495602360e-03 -2.9542053449794869e-03 0.0000000000000000e+00  -2.9122220999743234e-03 -2.8524108714322771e-03 0.0000000000000000e+00  -2.8074888811098439e-03 -2.8679400643451640e-03 0.0000000000000000e+00  -2.9005846412309346e-03 -2.9549096478017640e-03 0.0000000000000000e+00  -2.8531248561189364e-03 -2.8497586101743971e-03 0.0000000000000000e+00  -2.9127503248416882e-03 -2.9183489083878331e-03 0.0000000000000000e+00  -2.8097940581585188e-03 -2.8519223980016093e-03 0.0000000000000000e+00  -2.9071477926850353e-03 -2.9492833096277800e-03 0.0000000000000000e+00  -2.8260709989725201e-03 -2.9379707566855656e-03 0.0000000000000000e+00  -2.8960581261635284e-03 -2.8579876151023078e-03 0.0000000000000000e+00  -2.8957655825125423e-03 -2.8679402874169594e-03 0.0000000000000000e+00  -2.8103105583470183e-03 -2.9233348268953678e-03 0.0000000000000000e+00  -2.8130802378198861e-03 -2.9447334084378193e-03 0.0000000000000000e+00  -2.9025645438306817e-03 -2.8552433928544689e-03 0.0000000000000000e+00  -2.8531257437435145e-03 -2.9509045699189795e-03 0.0000000000000000e+00  -2.8196865813550180e-03 -2.8595561506408670e-03 0.0000000000000000e+00  -2.8967821197965057e-03 -2.9485104454065351e-03 0.0000000000000000e+00  -2.8178029470020882e-03 -2.9098181000227616e-03 0.0000000000000000e+00  -2.8877248559984075e-03 -2.8655897957058055e-03 0.0000000000000000e+00  -2.8174542079493232e-03 -2.9530425803252634e-03 0.0000000000000000e+00  -2.8362730362465343e-03 -2.8714944187196111e-03 0.0000000000000000e+00  -2.8932844916304281e-03 -2.9388477074987862e-03 0.0000000000000000e+00  -2.9105611088217354e-03 -2.9364928381253185e-03 0.0000000000000000e+00  -2.8208847073058294e-03 -2.8827570697283018e-03 0.0000000000000000e+00  -2.8716535827282949e-03 -2.9413874501776275e-03 0.0000000000000000e+00  -2.8557175512710421e-03 -2.8619764216397370e-03 0.0000000000000000e+00  -2.8197695821694907e-03 -2.8979970276528013e-03 0.0000000000000000e+00  -2.8942791944412995e-03 -2.8979954821386649e-03 0.0000000000000000e+00  -2.8557179791908593e-03 -2.9364904483876464e-03 0.0000000000000000e+00  -2.8569756024215374e-03 -2.8613342451192536e-03 0.0000000000000000e+00  -2.8165564416995207e-03 -2.8504379649176795e-03 0.0000000000000000e+00  -2.9129832586133192e-03 -2.9538685742571736e-03 0.0000000000000000e+00  -2.8557171377769286e-03 -2.9424602842379288e-03 0.0000000000000000e+00  -2.8557170853974715e-03 -2.8679417507329525e-03 0.0000000000000000e+00  -2.8557175512710421e-03 -2.8619764216397370e-03 0.0000000000000000e+00  -2.8557179791908593e-03 -2.9364904483876464e-03 0.0000000000000000e+00  -2.8260707980448064e-03 -2.8979965802544980e-03 0.0000000000000000e+00  -2.9005845512800254e-03 -2.8979957201401528e-03 0.0000000000000000e+00  -2.8260707980448064e-03 -2.8979965802544980e-03 0.0000000000000000e+00  -2.8557170853974715e-03 -2.8679417507329525e-03 0.0000000000000000e+00  -2.8197695821694907e-03 -2.8979970276528013e-03 0.0000000000000000e+00  -2.8942791944412995e-03 -2.8979954821386649e-03 0.0000000000000000e+00  -2.8557171377769286e-03 -2.9424602842379288e-03 0.0000000000000000e+00  -2.9005845512800254e-03 -2.8979957201401528e-03 0.0000000000000000e+00  -2.8208290824658258e-03 -2.8531474308119741e-03 0.0000000000000000e+00  -2.8932763238963318e-03 -2.9170350462981490e-03 0.0000000000000000e+00  -2.9109888887225645e-03 -2.8809419146569992e-03 0.0000000000000000e+00  -2.9127825819983025e-03 -2.8535310778646660e-03 0.0000000000000000e+00  -2.8886977196278711e-03 -2.8496290735284145e-03 0.0000000000000000e+00  -2.8909623167769488e-03 -2.8500654960317796e-03 0.0000000000000000e+00  -2.8086827979504083e-03 -2.9481051448653471e-03 0.0000000000000000e+00  -2.8305572441453806e-03 -2.9546164619417121e-03 0.0000000000000000e+00  -2.8975788772532163e-03 -2.9060611712154868e-03 0.0000000000000000e+00  -2.8398452593268917e-03 -2.9299072003423359e-03 0.0000000000000000e+00  -2.8092097115033025e-03 -2.9368131406343461e-03 0.0000000000000000e+00  -2.9069603202130784e-03 -2.8923891008754911e-03 0.0000000000000000e+00  -2.9099900949069025e-03 -2.8726812344512585e-03 0.0000000000000000e+00  -2.8097936096556780e-03 -2.8722180986977975e-03 0.0000000000000000e+00  -2.8285944464354071e-03 -2.8505904468008273e-03 0.0000000000000000e+00  -2.8073177423419554e-03 -2.8509658823920960e-03 0.0000000000000000e+00  -2.9109835984308264e-03 -2.9279797716890155e-03 0.0000000000000000e+00  -2.8901539558775910e-03 -2.9323800746681996e-03 0.0000000000000000e+00  -2.8882858997972488e-03 -2.9547669351623913e-03 0.0000000000000000e+00  -2.8306476483183807e-03 -2.9262800502726353e-03 0.0000000000000000e+00  -2.8279768327300419e-03 -2.8702176207356638e-03 0.0000000000000000e+00  -2.8080894605443650e-03 -2.8935572710586319e-03 0.0000000000000000e+00  -2.8727707631474248e-03 -2.9547775661453619e-03 0.0000000000000000e+00  -2.8228862482939797e-03 -2.9466054667199458e-03 0.0000000000000000e+00  -2.8083318965819821e-03 -2.9547102367571219e-03 0.0000000000000000e+00  -2.8335001220083137e-03 -2.9492824908300620e-03 0.0000000000000000e+00  -2.8276363563476343e-03 -2.9274934557699537e-03 0.0000000000000000e+00  -2.9104213086517056e-03 -2.8493639073293286e-03 0.0000000000000000e+00  -2.9071479503628957e-03 -2.8757533941462738e-03 0.0000000000000000e+00  -2.8852847874247032e-03 -2.8697699094795545e-03 0.0000000000000000e+00  -2.8097932849607586e-03 -2.9210599420873948e-03 0.0000000000000000e+00  -2.9117486809681504e-03 -2.8656223278292737e-03 0.0000000000000000e+00  -2.8090974921020952e-03 -2.9262648908321824e-03 0.0000000000000000e+00  -2.9128883962957022e-03 -2.9520188822505832e-03 0.0000000000000000e+00  -2.8441298577980660e-03 -2.9194180168270606e-03 0.0000000000000000e+00  -2.8771570864489335e-03 -2.8859492174441153e-03 0.0000000000000000e+00  -2.8844568778380007e-03 -2.8773095481599937e-03 0.0000000000000000e+00  -2.8844571347663123e-03 -2.9193195625906204e-03 0.0000000000000000e+00  -2.8768274402247089e-03 -2.8519220799490120e-03 0.0000000000000000e+00  -2.9111720641969447e-03 -2.9406820198597168e-03 0.0000000000000000e+00  -2.9108382926575846e-03 -2.9419590893468165e-03 0.0000000000000000e+00  -2.8679707607587633e-03 -2.9330878618188186e-03 0.0000000000000000e+00  -2.8076675154522336e-03 -2.9493142820994113e-03 0.0000000000000000e+00  -2.8078327099117588e-03 -2.8598199673133427e-03 0.0000000000000000e+00  -2.8132038310092430e-03 -2.8979959100738041e-03 0.0000000000000000e+00  -2.8310264789608536e-03 -2.8501626856035568e-03 0.0000000000000000e+00  -2.8966994948170467e-03 -2.9451010538951465e-03 0.0000000000000000e+00  -2.8557170514734911e-03 -2.9525139406149704e-03 0.0000000000000000e+00  -2.9052936367786409e-03 -2.8499069456724632e-03 0.0000000000000000e+00  -2.8441309014696123e-03 -2.8979947710007000e-03 0.0000000000000000e+00  -2.8346094631145949e-03 -2.8738818357534187e-03 0.0000000000000000e+00  -2.8606397890211560e-03 -2.8605490992681891e-03 0.0000000000000000e+00  -2.8167504188799631e-03 -2.8631881613531813e-03 0.0000000000000000e+00  -2.8101204819680941e-03 -2.8887395057859847e-03 0.0000000000000000e+00  -2.8379105654500057e-03 -2.8980680383357969e-03 0.0000000000000000e+00  -2.8463061208979282e-03 -2.9475949241909881e-03 0.0000000000000000e+00  -2.9059639425714216e-03 -2.9550522592768887e-03 0.0000000000000000e+00  -2.8797453056916499e-03 -2.9511640945648664e-03 0.0000000000000000e+00  -2.8710270503056641e-03 -2.8510524216235735e-03 0.0000000000000000e+00  -2.8771576372768710e-03 -2.8578129531065394e-03 0.0000000000000000e+00  -2.8557162601620485e-03 -2.9492834022519288e-03 0.0000000000000000e+00  -2.8690790759784844e-03 -2.8804974164507152e-03 0.0000000000000000e+00  -2.8078514763346684e-03 -2.9140587308826862e-03 0.0000000000000000e+00  -2.8762190484188724e-03 -2.8979946412326239e-03 0.0000000000000000e+00  -2.9052268892156420e-03 -2.8545158156677046e-03 0.0000000000000000e+00  -2.9019503226714247e-03 -2.8549543385793662e-03 0.0000000000000000e+00  -2.8117758922182397e-03 -2.8508982759549131e-03 0.0000000000000000e+00  -2.8557173538113372e-03 -2.9262785230310547e-03 0.0000000000000000e+00  -2.8807938771570796e-03 -2.9367369633705614e-03 0.0000000000000000e+00  -2.8317096636449155e-03 -2.9457202334820820e-03 0.0000000000000000e+00  -2.8099981067463706e-03 -2.8591480504143972e-03 0.0000000000000000e+00  -2.9035000404514515e-03 -2.9508341333706611e-03 0.0000000000000000e+00  -2.8324040755825222e-03 -2.9550779590487505e-03 0.0000000000000000e+00  -2.8151854001394467e-03 -2.9411907113907282e-03 0.0000000000000000e+00  -2.9106067730565875e-03 -2.9056453534714579e-03 0.0000000000000000e+00  -2.8120277519304493e-03 -2.8745326572147344e-03 0.0000000000000000e+00  -2.9051105766724540e-03 -2.9258751326084972e-03 0.0000000000000000e+00  -2.8323084798405123e-03 -2.8550038976765967e-03 0.0000000000000000e+00  -2.8317828924126045e-03 -2.8648941917771998e-03 0.0000000000000000e+00  -2.8194668077868527e-03 -2.9072296731683894e-03 0.0000000000000000e+00  -2.8557166814313869e-03 -2.8859504300758816e-03 0.0000000000000000e+00  -2.8355111586050659e-03 -2.8964844220586688e-03 0.0000000000000000e+00  -2.9127229836913254e-03 -2.9184820277211323e-03 0.0000000000000000e+00  -2.9027787289659392e-03 -2.9216968030560488e-03 0.0000000000000000e+00  -2.8557170942032349e-03 -2.9184802103563810e-03 0.0000000000000000e+00  -2.8990274365155231e-03 -2.8820568375109699e-03 0.0000000000000000e+00  -2.8775897812958278e-03 -2.9503016783791018e-03 0.0000000000000000e+00  -2.9128667360935525e-03 -2.8660158033087788e-03 0.0000000000000000e+00  -2.8074844718049075e-03 -2.9377600860253424e-03 0.0000000000000000e+00  -2.8191024977468567e-03 -2.9310234800708434e-03 0.0000000000000000e+00  -2.8162050716393585e-03 -2.8598205271587658e-03 0.0000000000000000e+00  -2.8557177307333994e-03 -2.8551506307509245e-03 0.0000000000000000e+00  -2.8798919574884274e-03 -2.9473939225030475e-03 0.0000000000000000e+00  -2.8221176305189104e-03 -2.8852363488301447e-03 0.0000000000000000e+00  -2.8825793553096269e-03 -2.9185549188226463e-03 0.0000000000000000e+00  -2.8184714271224159e-03 -2.9500392023912875e-03 0.0000000000000000e+00  -2.8187468554365697e-03 -2.9533909142237303e-03 0.0000000000000000e+00  -2.8557170514734911e-03 -2.9525139406149704e-03 0.0000000000000000e+00  -2.8507130231848880e-03 -2.9550604998247426e-03 0.0000000000000000e+00  -2.9019090741057400e-03 -2.9178626844959350e-03 0.0000000000000000e+00  -2.9129022498983661e-03 -2.8966245908643110e-03 0.0000000000000000e+00  -2.9064110720094702e-03 -2.9264384371380193e-03 0.0000000000000000e+00  -2.8193440405472167e-03 -2.9194171961840682e-03 0.0000000000000000e+00  -2.9101306129671145e-03 -2.8630327618382584e-03 0.0000000000000000e+00  -2.8557183958019196e-03 -2.8781556634836685e-03 0.0000000000000000e+00  -2.8762190484188724e-03 -2.8979946412326239e-03 0.0000000000000000e+00  -2.8358960331228539e-03 -2.8979973490209491e-03 0.0000000000000000e+00  -2.8557170942032349e-03 -2.9184802103563810e-03 0.0000000000000000e+00  -2.8636087791147824e-03 -2.8772646188319202e-03 0.0000000000000000e+00  -2.8783160340608541e-03 -2.8614342583948818e-03 0.0000000000000000e+00  -2.8366035864804593e-03 -2.8584593297501012e-03 0.0000000000000000e+00  -2.8159122083119747e-03 -2.8493571024372972e-03 0.0000000000000000e+00  -2.8354153109469882e-03 -2.8500867856972355e-03 0.0000000000000000e+00  -2.9106959459215902e-03 -2.9550783912204721e-03 0.0000000000000000e+00  -2.8557183958019196e-03 -2.8781556634836685e-03 0.0000000000000000e+00  -2.8358960331228539e-03 -2.8979973490209491e-03 0.0000000000000000e+00  -2.9125826822033506e-03 -2.9431410045290649e-03 0.0000000000000000e+00  -2.8097495873086018e-03 -2.8552066925944205e-03 0.0000000000000000e+00  -2.8105311400245347e-03 -2.8750928473142098e-03 0.0000000000000000e+00  -2.8498659624898171e-03 -2.8515728120624777e-03 0.0000000000000000e+00  -2.8719368895468861e-03 -2.8519958712837187e-03 0.0000000000000000e+00  -2.8848962441948909e-03 -2.8924176839065230e-03 0.0000000000000000e+00  -2.8768148840777634e-03 -2.9070690809071356e-03 0.0000000000000000e+00  -2.8646309213056992e-03 -2.9184997210524094e-03 0.0000000000000000e+00  -2.8557177307333994e-03 -2.8551506307509245e-03 0.0000000000000000e+00  -2.8557168991510326e-03 -2.8519219975868758e-03 0.0000000000000000e+00  -2.8844561574324482e-03 -2.8979962472940749e-03 0.0000000000000000e+00  -2.8557166814313869e-03 -2.8859504300758816e-03 0.0000000000000000e+00  -2.8132038310092430e-03 -2.8979959100738041e-03 0.0000000000000000e+00  -2.8441309014696123e-03 -2.8979947710007000e-03 0.0000000000000000e+00  -2.8097934769937116e-03 -2.8979953238050999e-03 0.0000000000000000e+00  -2.8557162601620485e-03 -2.9492834022519288e-03 0.0000000000000000e+00  -2.8557173538113372e-03 -2.9262785230310547e-03 0.0000000000000000e+00  -2.8557168991510326e-03 -2.8519219975868758e-03 0.0000000000000000e+00  -2.8097934769937116e-03 -2.8979953238050999e-03 0.0000000000000000e+00  -2.8844561574324482e-03 -2.8979962472940749e-03 0.0000000000000000e+00  -2.9105609795546010e-03 -2.8979960756120061e-03 0.0000000000000000e+00  -2.9071483382943591e-03 -2.8979964165527384e-03 0.0000000000000000e+00  -2.9105609795546010e-03 -2.8979960756120061e-03 0.0000000000000000e+00  -2.9071483382943591e-03 -2.8979964165527384e-03 0.0000000000000000e+00  -2.9080497021365830e-03 -2.9486981649677335e-03 0.0000000000000000e+00  -2.8936409735430910e-03 -2.8957921140132094e-03 0.0000000000000000e+00  -2.9003577535116833e-03 -2.8784346372190120e-03 0.0000000000000000e+00  -2.8767138310682124e-03 -2.9189723950366667e-03 0.0000000000000000e+00  -2.9075857921849351e-03 -2.8560043476830287e-03 0.0000000000000000e+00  -2.9121114415589112e-03 -2.8493863192189024e-03 0.0000000000000000e+00  -2.9112088860679761e-03 -2.8554961309578300e-03 0.0000000000000000e+00  -2.8366870186991113e-03 -2.8577832943559004e-03 0.0000000000000000e+00  -2.8073682014059338e-03 -2.8785706224251357e-03 0.0000000000000000e+00  -2.9121927284622338e-03 -2.8543441572450464e-03 0.0000000000000000e+00  -2.8826488274851722e-03 -2.9502960265248889e-03 0.0000000000000000e+00  -2.8340246522396617e-03 -2.9532103276094265e-03 0.0000000000000000e+00  -2.8533244719256110e-03 -2.9351345782186599e-03 0.0000000000000000e+00  -2.9092343076091744e-03 -2.9515509472147622e-03 0.0000000000000000e+00  -2.8073414840245267e-03 -2.8498511414671748e-03 0.0000000000000000e+00  -2.8078673677806223e-03 -2.9491872165689301e-03 0.0000000000000000e+00  -2.8076304697651024e-03 -2.9369856991976204e-03 0.0000000000000000e+00  -2.8954383084661564e-03 -2.9502036708425245e-03 0.0000000000000000e+00  -2.8197073779508389e-03 -2.9536967437988966e-03 0.0000000000000000e+00  -2.8932720195669341e-03 -2.8504536328452855e-03 0.0000000000000000e+00  -2.8135445057008825e-03 -2.9392225519063015e-03 0.0000000000000000e+00  -2.8081000136429240e-03 -2.9544846127886044e-03 0.0000000000000000e+00  -2.8746539280735564e-03 -2.8494166884836074e-03 0.0000000000000000e+00  -2.9120381554719721e-03 -2.9547406219490821e-03 0.0000000000000000e+00  -2.8932202247091282e-03 -2.8563061191687377e-03 0.0000000000000000e+00  -2.8969611838421468e-03 -2.9361877375189858e-03 0.0000000000000000e+00  -2.8887088277213704e-03 -2.8511530275164014e-03 0.0000000000000000e+00  -2.8882265109697628e-03 -2.8547004583512159e-03 0.0000000000000000e+00  -2.8182991133988687e-03 -2.8626711872295780e-03 0.0000000000000000e+00  -2.8154717473438911e-03 -2.9548178714960205e-03 0.0000000000000000e+00  -2.8543559208613878e-03 -2.8911102908834663e-03 0.0000000000000000e+00  -2.9035143152162731e-03 -2.9345601716426325e-03 0.0000000000000000e+00  -2.8737898561699538e-03 -2.9348332052531768e-03 0.0000000000000000e+00  -2.9014852859919047e-03 -2.8658792245935777e-03 0.0000000000000000e+00  -2.9111652837882549e-03 -2.9518946895134885e-03 0.0000000000000000e+00  -2.8737941230735108e-03 -2.8700140033331156e-03 0.0000000000000000e+00  -2.8390099010288622e-03 -2.8787451676365108e-03 0.0000000000000000e+00  -2.9117515366342194e-03 -2.9225414685105692e-03 0.0000000000000000e+00  -2.8086764448233153e-03 -2.9483348156850264e-03 0.0000000000000000e+00  -2.8934359436900395e-03 -2.9324953787343401e-03 0.0000000000000000e+00  -2.8932181355109071e-03 -2.9539537129862881e-03 0.0000000000000000e+00  -2.9117032441209295e-03 -2.8807570789570196e-03 0.0000000000000000e+00  -2.9130269008060890e-03 -2.8808036447757037e-03 0.0000000000000000e+00  -2.8520873054354232e-03 -2.9406664216526544e-03 0.0000000000000000e+00  -2.8280252745294305e-03 -2.9196781722729444e-03 0.0000000000000000e+00  -2.8474151544691968e-03 -2.9140392846081910e-03 0.0000000000000000e+00  -2.8108941556239499e-03 -2.8513501831682192e-03 0.0000000000000000e+00  -2.9052687628460770e-03 -2.8759774845221629e-03 0.0000000000000000e+00  -2.9130532114629705e-03 -2.9473797322772406e-03 0.0000000000000000e+00  -2.8534430923245128e-03 -2.8726336368805521e-03 0.0000000000000000e+00  -2.8637239362370071e-03 -2.9505724036422826e-03 0.0000000000000000e+00  -2.9086954067042291e-03 -2.9099786693586663e-03 0.0000000000000000e+00  -2.8723334397155295e-03 -2.9536905392215772e-03 0.0000000000000000e+00  -2.8706955721368816e-03 -2.9547445451470339e-03 0.0000000000000000e+00  -2.8093432536518441e-03 -2.8496259764545285e-03 0.0000000000000000e+00  -2.8358304461238515e-03 -2.9426230808952429e-03 0.0000000000000000e+00  -2.8090462333469480e-03 -2.8598208564053406e-03 0.0000000000000000e+00  -2.8138922131465890e-03 -2.8845049310500595e-03 0.0000000000000000e+00  -2.8310915778150757e-03 -2.9496111494309064e-03 0.0000000000000000e+00  -2.9030682019189559e-03 -2.8497826338542355e-03 0.0000000000000000e+00  -2.8669077112181865e-03 -2.9460444824504816e-03 0.0000000000000000e+00  -2.8214665069867741e-03 -2.8810914968162094e-03 0.0000000000000000e+00  -2.8897379776820675e-03 -2.9537963045492394e-03 0.0000000000000000e+00  -2.8400675134397850e-03 -2.9132045383638890e-03 0.0000000000000000e+00  -2.8410697930598902e-03 -2.9366491380549350e-03 0.0000000000000000e+00  -2.8184433435195530e-03 -2.9235619244389016e-03 0.0000000000000000e+00  -2.8362519226736165e-03 -2.8498831332300035e-03 0.0000000000000000e+00  -2.8114840256961704e-03 -2.9237764013049297e-03 0.0000000000000000e+00  -2.8140653707898785e-03 -2.8758183053413234e-03 0.0000000000000000e+00  -2.9052920638075685e-03 -2.8948003147076912e-03 0.0000000000000000e+00  -2.8891795762400118e-03 -2.8574533688422604e-03 0.0000000000000000e+00  -2.8733046525581635e-03 -2.8600160705843721e-03 0.0000000000000000e+00  -2.8881236150419269e-03 -2.9546058738325947e-03 0.0000000000000000e+00  -2.8641008644904229e-03 -2.9543846891355902e-03 0.0000000000000000e+00  -2.8426866177861483e-03 -2.8497082172163559e-03 0.0000000000000000e+00  -2.8173799072270110e