<?xml version="1.0"?>
<VTKFile type="UnstructuredGrid"  version="0.1"  >
<UnstructuredGrid>
<Piece  NumberOfPoints="1380" NumberOfCells="2630">
<Points>
<DataArray  type="Float64"  NumberOfComponents="3"  format="ascii">-1 -1 0  1 -1 0  1 1 0  -1 1 0  0 -1 0  1 0 0  0 1 0  -1 0 0  0 0 0  -1 -0.5 0  -0.5 -1 0  -0.5 1 0  -1 0.5 0  1 -0.5 0  0.5 -1 0  1 0.5 0  0.5 1 0  0.4166666666666666 -0.4166666666666667 0  -0.4166666666666667 0.4166666666666667 0  -0.25 -0.5 0  0.5 0.25 0  -0.4861111111111112 -0.06944444444444445 0  0.0732758620689655 0.507183908045977 0  -0.625 -0.625 0  0.625 0.625 0  0.7380952380952381 -0.25 0  -0.7099116161616161 0.2105429292929293 0  -0.25 0.7380952380952381 0  0.105392156862745 -0.6348039215686275 0  0.6770833333333334 -0.6770833333333333 0  -0.6770833333333334 0.6770833333333334 0  0.3472222222222222 -0.06944444444444446 0  -0.7264957264957265 -0.3044871794871795 0  0.3141940982507127 0.7297313660835709 0  0.02049587951122483 -0.3227479397556124 0  -0.2690972222222223 0.1475694444444444 0  0.3859500089908372 -0.7274430156831472 0  -0.2228477945123298 -0.1761765495248019 0  0.2182539682539683 0.1884920634920635 0  0.75 0.375 0  -0.145442219440968 -0.7602211097204841 0  0.7088913690476191 0.0427827380952381 0  -0.75 -1 0  -1 -0.75 0  1 0.75 0  0.75 1 0  -0.7439982703698937 -0.04614153195464455 0  -0.4609235096577606 -0.3356498099556895 0  0.4063134471431929 0.4895621842856023 0  0.25 -1 0  -0.25 -1 0  -0.75 1 0  0.75 -1 0  -1 -0.25 0  -1 0.25 0  1 -0.25 0  -0.25 1 0  1 -0.75 0  -1 0.75 0  0.25 1 0  1 0.25 0  -0.4041423272138783 -0.7597141090712928 0  0.06500839607911253 0.7578103030529481 0  -0.1572801182352047 0.3838997021864289 0  -0.6528005242053915 0.4409494757946086 0  -0.4930160984848485 0.1544744318181818 0  -0.4732142857142858 0.7752976190476191 0  0.6398809523809523 -0.4538690476190476 0  0.5166054117396399 -0.2161233620965164 0  -0.002273787244753427 0.2232363985975174 0  0.1500564496765022 -0.1524955293952667 0  0.2016720420046758 -0.4410343282803009 0  -0.08495178036419618 0.6274139771124571 0  -0.8367311471133162 0.3642591720794645 0  -0.8333333333333334 -0.625 0  -0.594323836800685 -0.8231079456002283 0  -0.4466957714776065 -0.5349126855671806 0  0.8125 0.5625 0  0.78125 0.78125 0  0.5091392650016769 0.7947130883338923 0  0.125 -0.8382681931833136 0  -0.8184523809523809 -0.8184523809523809 0  -0.07781530426104531 -0.5819319697006881 0  0.5085055196703295 0.04967610411902112 0  0.2918471072074933 -0.276017202318847 0  0.5120763537765269 -0.5898771553229597 0  0.625 -0.8585349462365591 0  0.8158532234335381 -0.8158532234335381 0  -0.5198088446315396 0.5739411553684605 0  -0.8585349462365591 0.625 0  -0.8150493805516597 0.8156205699829586 0  0.8585349462365591 -0.625 0  -0.2688268348649726 0.5439331383603209 0  0.8242100426758139 -0.4436043596336612 0  0.5833756314287952 0.4479378157143976 0  0.8690476190476191 -0.125 0  -0.125 0.8690476190476191 0  -0.8692745600729823 0.125 0  0.8696725120759167 0.125 0  -0.625 0.8711516477451908 0  0.2339522463269718 0.3879558377955778 0  0.2453709502295031 0.5655822922838026 0  0.1730610651637797 0.02021709580868947 0  0.3245402594056757 -0.5644672020485209 0  -0.7291666666666666 -0.4816595441595442 0  -1 -0.375 0  -0.5811140848639904 -0.2127276307675001 0  0.673332592838314 0.2158348143233718 0  0.375 1 0  -0.5714768890989919 0.2985103444040069 0  -1 -0.125 0  -0.8453692574786325 -0.1875 0  -0.3144549134065865 -0.02408675326008025 0  -0.2898414972096258 -0.3336092734780093 0  -0.1075052092206287 -0.4224330421314983 0  -0.05043970703604117 -0.1652278959397459 0  0.6459672950297897 -0.1113415301525317 0  0.4645210271029513 0.6398480556579343 0  0.3512863754411909 0.0937979496253573 0  -0.6063160985568274 0.03891469652249891 0  -0.3428819444444445 0.8690476190476191 0  0.625 1 0  -0.1602164796159982 0.02697860906625157 0  0.04648110064133829 -0.4808416424239687 0  1 0.875 0  -0.3836102479201657 0.6484936449177356 0  -0.3776011723096096 0.263078478984336 0  -0.6024978259969829 -0.3949628096211138 0  0.125 1 0  0.2010781308272777 0.8456221018461906 0  0.2822509696388829 -0.845902544691141 0  -0.3285533674953515 -0.6289773550938936 0  0.3461306793221754 0.278777492464833 0  0.4737475672408696 -0.8508448959534423 0  0.2384632828836344 -0.7029523187242811 0  -0.004777287059791593 0.3759269695907358 0  -0.8499735021850066 -0.3912320205328522 0  0.1222536293721587 0.2963971539625205 0  -0.3769456520999688 -0.203572526805711 0  -0.2749617205755651 -0.8464290792698902 0  0.004805888512766143 -0.747174355248311 0  -0.125 -1 0  -0.06001061822252458 -0.8724007765244854 0  0.875 0.4375 0  0.854421179608893 0.271342359217786 0  0.875 1 0  -0.1499861095763589 0.2358309656934888 0  0.3381943639137225 0.8663061796405532 0  -0.7853090110442228 0.4998412775277108 0  0.7398165998560814 -0.5535192694951373 0  0.1580042122341573 -0.3100246140259917 0  -0.7291666666666667 -0.7142857142857142 0  -0.375 -1 0  0.6483368386154684 0.8514905990110488 0  -0.1295370103291928 -0.2826118305021242 0  0.07458201853700455 0.1123894386563915 0  0.6146465857036327 -0.3161203659316075 0  0.5551898493894731 -0.740296118159085 0  0.375 -1 0  0.482702798370208 -0.084133350091034 0  0.87890625 0.68359375 0  -0.05917195534525846 0.4971092425697621 0  0.1260710309213975 0.6343750312956699 0  0.8690476190476191 -0.3077066815262848 0  -0.2912010232560567 0.3668168386732139 0  -0.875 1 0  -1 0.875 0  1 -0.875 0  0.875 -1 0  -0.8689564281364567 -0.006189266075306407 0  -0.7449425635110547 0.08458938160051771 0  -0.7150266761936593 -0.1739444581417552 0  -0.5260034831318311 -0.711099823962112 0  -0.4724626808827322 -0.871722230709409 0  0.4734436795977052 0.377714794132168 0  -0.875 -1 0  -1 -0.875 0  0.6927189078571988 0.5156567235715964 0  -0.3742497615796874 -0.4296005251260107 0  -0.1969436423297711 -0.6387157229772615 0  -0.6179496409766825 -0.08933356056510935 0  -0.424405057115988 0.04452428810878029 0  -0.08479048335844169 0.1279607007132633 0  0.003830300099055113 0.8712085230656206 0  0.8748778838820267 -1.379218479898026e-05 0  -0.375 1 0  -0.625 1 0  1 0.125 0  -0.125 1 0  1 -0.375 0  1 -0.125 0  1 -0.625 0  0.625 -1 0  0.125 -1 0  -0.625 -1 0  -1 -0.625 0  -1 0.125 0  -1 0.375 0  -1 0.625 0  1 0.375 0  1 0.625 0  0.6325660748712082 0.3335187599557389 0  -0.06420945895056573 0.7549874027425891 0  -0.8769015540914771 0.2478802253893416 0  0.871875 0.871875 0  -0.6868091492840067 0.3270978624973681 0  -0.5363597469565949 0.412994850055505 0  -0.6803734992638302 0.5574295000651103 0  -0.7076253581162534 -0.8803439094224437 0  -0.8778089002295137 -0.5106896447504627 0  -0.3860184984222981 0.530566778071246 0  0.6109900617121508 0.1128453077697081 0  0.3896945134930274 -0.1915382873255086 0  0.7605656944697778 -0.06822134873122943 0  0.3576151269893478 0.5948388411612135 0  -0.5689902680792265 -0.5143596830118065 0  0.6262446286847614 -0.5735657901943212 0  0.2030558252325225 -0.5625263842513452 0  0.6123273142928579 0.7407533260723429 0  0.4016460890123554 -0.3042863223111857 0  -0.59039693199147 0.7578418819188018 0  0.7276932493917544 -0.3705808024528924 0  0.5222536818742854 -0.4713886230400014 0  -0.5101986527137737 0.8848365765607674 0  0.510560172809238 0.5356013299918891 0  -0.3603569195756083 0.75823710606415 0  0.1967279277813232 0.728226870058472 0  -0.6086880986371127 0.1545624071548516 0  -0.38105366729386 0.1511189987807864 0  -0.2944659463671584 -0.7359061804869591 0  0.5060729154966499 -0.3475227845833823 0  -0.09281616240412746 -0.06197858250969457 0  0.7649739583333334 0.6673177083333334 0  0.7628906249999999 0.890234375 0  -0.2666864184909611 0.2585504071132311 0  0.3635064892129658 0.3878003602709461 0  -0.2339409722222222 0.8901937905844155 0  -0.1718792125974916 -0.8957733325456778 0  0.1001768566329531 0.4023510017391879 0  0.3120260172693757 -0.4540546875576884 0  0.7804062804433681 0.1896628610854537 0  0.4087715451998049 0.187961780041608 0  -0.1584963477271457 0.5451611892421655 0  -0.8926817849258324 0.463022006336401 0  0.2338091473445219 -0.07576267331277289 0  0.08171112182813692 -0.2349087687359925 0  0.04635385178956847 -0.1044635073718474 0  -0.4377391632114205 -0.6448874471423088 0  -0.1907678351227189 0.6480215912813945 0  0.300605946475244 0.4741444604171038 0  -0.2145033720757486 -0.06751709909419711 0  0.6069191921170397 -0.005492331448357812 0  0.0214718770761248 0.6032397936031719 0  0.5476675683364878 0.8992752415326501 0  0.4387475014316537 0.9093708953002239 0  -0.4932997685306436 -0.4381009159993523 0  0.2515197695339056 -0.1791673369138964 0  -0.7291666666666667 -0.6088789682539681 0  -0.9166666666666667 -0.6875 0  0.620579540363709 -0.2122431523583302 0  -0.484950136419973 0.6719440339397442 0  0.2857044415400258 0.0137589173127316 0  -0.8945708364098356 -0.288306105327986 0  0.4043102720140535 0.7842914560451557 0  0.04123256238752064 -0.9026968245801402 0  0.2003676884403109 -0.9091888601740487 0  0.1068775558538842 -0.7373377130403223 0  -0.4804566783514427 -0.1763307203045643 0  0.108286342087769 -0.3993789328997278 0  -0.191883080105361 -0.3640821726430649 0  -0.07025064492006244 0.2984876656890053 0  -0.7039324641409584 0.788312126296613 0  -0.7311286585775438 0.8932502354831682 0  0.5171409396884947 0.1503852691889257 0  0.4229392823658633 -0.003216522184234835 0  -0.5621736087218259 -0.919558629836806 0  -0.626474064879544 -0.7266572613636506 0  0.2446828746617422 0.2867616783302419 0  0.1759429608742923 0.4776611759306416 0  -0.3468240303741654 -0.5260416435617549 0  -0.7465808808425306 0.4069574477998361 0  -0.7819962170660292 0.2802441065650652 0  -0.3742623214119594 -0.8547800509641984 0  0.1014498009713561 0.8506721983266377 0  0.4285217620918213 -0.5230190595570253 0  0.4091738370487775 -0.6256346204225141 0  0.78125 0.46875 0  0.90625 0.53125 0  -0.4791801348852565 0.2553992655702126 0  0.7843318610782772 -0.7086046956885941 0  0.8909728264971901 -0.7355183796514634 0  0.7041908166528879 -0.7830649143180282 0  0.7311821352
[...]
<PointData  Vectors="f_22"> 
<DataArray  type="Float64"  Name="f_22"  NumberOfComponents="3" format="ascii">-2.8372883718406810e-03 -2.8807804732404966e-03 0.0000000000000000e+00  -2.8372883718406810e-03 -2.8807804732404966e-03 0.0000000000000000e+00  -2.8372883718406810e-03 -2.8807804732404966e-03 0.0000000000000000e+00  -2.8372883718406810e-03 -2.8807804732404966e-03 0.0000000000000000e+00  -2.8372424575701005e-03 -2.9236332555366332e-03 0.0000000000000000e+00  -2.8830694746658976e-03 -2.8807264819351156e-03 0.0000000000000000e+00  -2.8372424575701005e-03 -2.9236332555366332e-03 0.0000000000000000e+00  -2.8830694746658976e-03 -2.8807264819351156e-03 0.0000000000000000e+00  -2.8831051161044593e-03 -2.9236922637619059e-03 0.0000000000000000e+00  -2.5191660351734516e-03 -2.8807499975991952e-03 0.0000000000000000e+00  -2.8372680224039936e-03 -2.5612082542499945e-03 0.0000000000000000e+00  -2.8372680224039936e-03 -2.5612082542499945e-03 0.0000000000000000e+00  -3.2011961959260171e-03 -2.8807440159439000e-03 0.0000000000000000e+00  -2.5191660351734516e-03 -2.8807499975991952e-03 0.0000000000000000e+00  -2.8372573382164220e-03 -3.2432278399743444e-03 0.0000000000000000e+00  -3.2011961959260171e-03 -2.8807440159439000e-03 0.0000000000000000e+00  -2.8372573382164220e-03 -3.2432278399743444e-03 0.0000000000000000e+00  -2.5366933744367594e-03 -3.2371379885037885e-03 0.0000000000000000e+00  -3.1954747285887425e-03 -2.5783576845121413e-03 0.0000000000000000e+00  -2.5191906061142180e-03 -2.6762622960521620e-03 0.0000000000000000e+00  -3.1175249927526132e-03 -3.2432381552823545e-03 0.0000000000000000e+00  -2.8087459085538143e-03 -2.5624716761352083e-03 0.0000000000000000e+00  -3.2005891721121429e-03 -3.0009236960951619e-03 0.0000000000000000e+00  -2.5363908776096277e-03 -2.5789841423119152e-03 0.0000000000000000e+00  -3.1664855487846897e-03 -3.2090719898979080e-03 0.0000000000000000e+00  -2.6352218230346063e-03 -3.1375604241149998e-03 0.0000000000000000e+00  -3.0877073781825186e-03 -2.6195416108217816e-03 0.0000000000000000e+00  -3.0945410176296860e-03 -2.6762314337816420e-03 0.0000000000000000e+00  -2.5398651780018768e-03 -3.0333372075175510e-03 0.0000000000000000e+00  -2.5584886730342180e-03 -3.1804489884797085e-03 0.0000000000000000e+00  -3.1376507071765162e-03 -2.6012990559591584e-03 0.0000000000000000e+00  -2.8087510007953034e-03 -3.2146104895945204e-03 0.0000000000000000e+00  -2.5947029165076002e-03 -2.6299534258136261e-03 0.0000000000000000e+00  -3.1010346772463631e-03 -3.1985899187343481e-03 0.0000000000000000e+00  -2.5827981430030836e-03 -2.9455799142074175e-03 0.0000000000000000e+00  -3.0331694762075509e-03 -2.6613022020802431e-03 0.0000000000000000e+00  -2.5875439577183910e-03 -3.2290730897274488e-03 0.0000000000000000e+00  -2.7004367270141833e-03 -2.6989348058305438e-03 0.0000000000000000e+00  -3.0695520579196922e-03 -3.1347691161973659e-03 0.0000000000000000e+00  -3.1840163173869830e-03 -3.1281821937979154e-03 0.0000000000000000e+00  -2.6102053315575770e-03 -2.7710170858854933e-03 0.0000000000000000e+00  -2.9285663831565864e-03 -3.1592731848562264e-03 0.0000000000000000e+00  -2.8372765044411478e-03 -2.6459456707416721e-03 0.0000000000000000e+00  -2.6028737421379443e-03 -2.8807720132164971e-03 0.0000000000000000e+00  -3.0851165239038805e-03 -2.8807621495120965e-03 0.0000000000000000e+00  -2.8372790459966716e-03 -3.1281759925465558e-03 0.0000000000000000e+00  -2.8335738943980780e-03 -2.6416813008971912e-03 0.0000000000000000e+00  -2.5749486618372461e-03 -2.5664195605405921e-03 0.0000000000000000e+00  -3.2017841915492813e-03 -3.2348077499543089e-03 0.0000000000000000e+00  -2.8372473358603406e-03 -3.1585035675799197e-03 0.0000000000000000e+00  -2.8372472505219068e-03 -2.6762431944876122e-03 0.0000000000000000e+00  -2.8372765044411478e-03 -2.6459456707416721e-03 0.0000000000000000e+00  -2.8372790459966716e-03 -3.1281759925465558e-03 0.0000000000000000e+00  -2.6352259360940696e-03 -2.8807375652445616e-03 0.0000000000000000e+00  -3.1174956082811161e-03 -2.8807319689356289e-03 0.0000000000000000e+00  -2.6352259360940696e-03 -2.8807375652445616e-03 0.0000000000000000e+00  -2.8372472505219068e-03 -2.6762431944876122e-03 0.0000000000000000e+00  -2.6028737421379443e-03 -2.8807720132164971e-03 0.0000000000000000e+00  -3.0851165239038805e-03 -2.8807621495120965e-03 0.0000000000000000e+00  -2.8372473358603406e-03 -3.1585035675799197e-03 0.0000000000000000e+00  -3.1174956082811161e-03 -2.8807319689356289e-03 0.0000000000000000e+00  -2.6098556850614753e-03 -2.5829247814475984e-03 0.0000000000000000e+00  -3.0787044280297660e-03 -2.9923706057176482e-03 0.0000000000000000e+00  -3.1869267750475297e-03 -2.7593794741758763e-03 0.0000000000000000e+00  -3.1995428190260975e-03 -2.5898189588835106e-03 0.0000000000000000e+00  -3.0395122336053680e-03 -2.5617475954689880e-03 0.0000000000000000e+00  -3.0639371816046229e-03 -2.5642032268254856e-03 0.0000000000000000e+00  -2.5260237048573509e-03 -3.2016588918734241e-03 0.0000000000000000e+00  -2.6638417285462269e-03 -3.2416207325004277e-03 0.0000000000000000e+00  -3.0977314909022345e-03 -2.9212601826380359e-03 0.0000000000000000e+00  -2.7233301093268747e-03 -3.0762187512824880e-03 0.0000000000000000e+00  -2.5292084961780884e-03 -3.1213893843010597e-03 0.0000000000000000e+00  -3.1652793644196568e-03 -2.8329572499121371e-03 0.0000000000000000e+00  -3.1801113411102050e-03 -2.7161492259575089e-03 0.0000000000000000e+00  -2.5363825003681959e-03 -2.7131568380593164e-03 0.0000000000000000e+00  -2.6608399865244458e-03 -2.5698294784365378e-03 0.0000000000000000e+00  -2.5187392068130219e-03 -2.5695771376499483e-03 0.0000000000000000e+00  -3.1901900851278803e-03 -3.0738237451734497e-03 0.0000000000000000e+00  -3.0588160666430585e-03 -3.1019661268464204e-03 0.0000000000000000e+00  -3.0468747324289384e-03 -3.2424811646253405e-03 0.0000000000000000e+00  -2.6742347043491959e-03 -3.0525171523409266e-03 0.0000000000000000e+00  -2.6567999407799323e-03 -2.7000736742450512e-03 0.0000000000000000e+00  -2.5245753340919740e-03 -2.8404950577566542e-03 0.0000000000000000e+00  -2.9358277897017170e-03 -3.2425290446008127e-03 0.0000000000000000e+00  -2.6149807458544579e-03 -3.1859224465739079e-03 0.0000000000000000e+00  -2.5262644310622873e-03 -3.2421390713559682e-03 0.0000000000000000e+00  -2.6928849487348797e-03 -3.2090474582040607e-03 0.0000000000000000e+00  -2.6545540381427402e-03 -3.0707047263475147e-03 0.0000000000000000e+00  -3.1867223345647747e-03 -2.5605139893297314e-03 0.0000000000000000e+00  -3.1664614199289442e-03 -2.7362323722303203e-03 0.0000000000000000e+00  -3.0276650700983019e-03 -2.6971287924936471e-03 0.0000000000000000e+00  -2.5363606731811628e-03 -3.0294415541561727e-03 0.0000000000000000e+00  -3.1947666493784693e-03 -2.6614874694727455e-03 0.0000000000000000e+00  -2.5285250019673228e-03 -3.0628114951661615e-03 0.0000000000000000e+00  -3.2003963458838757e-03 -3.2260491718594554e-03 0.0000000000000000e+00  -2.7508147717100117e-03 -3.0188758437047622e-03 0.0000000000000000e+00  -2.9755097480685761e-03 -2.7915082808172512e-03 0.0000000000000000e+00  -3.0118199784367927e-03 -2.7463648956377370e-03 0.0000000000000000e+00  -3.0118280178110029e-03 -3.0182502718501484e-03 0.0000000000000000e+00  -2.9734070537690001e-03 -2.5789634260562273e-03 0.0000000000000000e+00  -3.1882050508893890e-03 -3.1468249265421129e-03 0.0000000000000000e+00  -3.1893034544578903e-03 -3.1552254387461338e-03 0.0000000000000000e+00  -2.9047138171978096e-03 -3.0970137739424206e-03 0.0000000000000000e+00  -2.5215053384836732e-03 -3.2039332422153350e-03 0.0000000000000000e+00  -2.5210740111746592e-03 -2.6317078428119904e-03 0.0000000000000000e+00  -2.5538818549994376e-03 -2.8807399661467275e-03 0.0000000000000000e+00  -2.6668610167313277e-03 -2.5668189616955849e-03 0.0000000000000000e+00  -3.0919424093925523e-03 -3.1827799946176592e-03 0.0000000000000000e+00  -2.8372523809555984e-03 -3.2254732511662961e-03 0.0000000000000000e+00  -3.1486554140491953e-03 -2.5649671257924594e-03 0.0000000000000000e+00  -2.7508225733255771e-03 -2.8807213053234867e-03 0.0000000000000000e+00  -2.6897561158264385e-03 -2.7240030687367199e-03 0.0000000000000000e+00  -2.8572662576302893e-03 -2.6293472738981474e-03 0.0000000000000000e+00  -2.5761714777428292e-03 -2.6460639193814808e-03 0.0000000000000000e+00  -2.5347847656340817e-03 -2.8094845057389062e-03 0.0000000000000000e+00  -2.7109286672791187e-03 -2.8696077797579289e-03 0.0000000000000000e+00  -2.7648135836101690e-03 -3.1984620094674715e-03 0.0000000000000000e+00  -3.1590745061325989e-03 -3.2435126178412010e-03 0.0000000000000000e+00  -2.9811626770745508e-03 -3.2163639731760891e-03 0.0000000000000000e+00  -2.9245027778282001e-03 -2.5730038210765331e-03 0.0000000000000000e+00  -2.9755148318419905e-03 -2.6120587735930169e-03 0.0000000000000000e+00  -2.8372613415907954e-03 -3.2090620001130072e-03 0.0000000000000000e+00  -2.9118949461901995e-03 -2.7565467905500021e-03 0.0000000000000000e+00  -2.5211622311596829e-03 -2.9730626908215877e-03 0.0000000000000000e+00  -2.9695195665508200e-03 -2.8807624356242656e-03 0.0000000000000000e+00  -3.1544068822621754e-03 -2.5913992216082455e-03 0.0000000000000000e+00  -3.1265153711493390e-03 -2.5941462354992046e-03 0.0000000000000000e+00  -2.5450133342779678e-03 -2.5719638703256215e-03 0.0000000000000000e+00  -2.8372452035493921e-03 -3.0525070325539464e-03 0.0000000000000000e+00  -2.9988721293736629e-03 -3.1208841275524382e-03 0.0000000000000000e+00  -2.6811757344534421e-03 -3.1800382245264192e-03 0.0000000000000000e+00  -2.5377719928019846e-03 -2.6204961188793538e-03 0.0000000000000000e+00  -3.1367953120311444e-03 -3.2141488726162223e-03 0.0000000000000000e+00  -2.6857185938848178e-03 -3.2438225809021861e-03 0.0000000000000000e+00  -2.5725039134136822e-03 -3.1501376911091065e-03 0.0000000000000000e+00  -3.1843254725757624e-03 -2.9185614475452089e-03 0.0000000000000000e+00  -2.5465637295395212e-03 -2.7282670913910735e-03 0.0000000000000000e+00  -3.1474737778923118e-03 -3.0499163427861620e-03 0.0000000000000000e+00  -2.6750624991460172e-03 -2.5944786482154092e-03 0.0000000000000000e+00  -2.6816733790141723e-03 -2.6568669023298219e-03 0.0000000000000000e+00  -2.6008496798973582e-03 -2.9287902298624877e-03 0.0000000000000000e+00  -2.8372409326645827e-03 -2.7915163514026162e-03 0.0000000000000000e+00  -2.7059975234520121e-03 -2.8593494023370033e-03 0.0000000000000000e+00  -3.1991187657050969e-03 -3.0128872286594110e-03 0.0000000000000000e+00  -3.1319969824254116e-03 -3.0335264981658987e-03 0.0000000000000000e+00  -2.8372782439663956e-03 -3.0128933388441077e-03 0.0000000000000000e+00  -3.1072540361324272e-03 -2.7665421621208899e-03 0.0000000000000000e+00  -2.9783099275409106e-03 -3.2105524436873609e-03 0.0000000000000000e+00  -3.2011870210052317e-03 -2.6724891050044575e-03 0.0000000000000000e+00  -2.5201265298929717e-03 -3.1362286621690327e-03 0.0000000000000000e+00  -2.5910024156803693e-03 -3.0835019255609783e-03 0.0000000000000000e+00  -2.5793147361112987e-03 -2.6317185003821284e-03 0.0000000000000000e+00  -2.8372571265241962e-03 -2.5953692311359898e-03 0.0000000000000000e+00  -2.9931080757666121e-03 -3.1972320533647427e-03 0.0000000000000000e+00  -2.6101228188063282e-03 -2.7869676974003128e-03 0.0000000000000000e+00  -2.9996199185807356e-03 -3.0022796094117819e-03 0.0000000000000000e+00  -2.5869922846685298e-03 -3.2137478803195610e-03 0.0000000000000000e+00  -2.5960941767911492e-03 -3.2343947756288583e-03 0.0000000000000000e+00  -2.8372523809555984e-03 -3.2254732511662961e-03 0.0000000000000000e+00  -2.7931924078609892e-03 -3.2438802060223496e-03 0.0000000000000000e+00  -3.1335406904755081e-03 -3.0089202852646990e-03 0.0000000000000000e+00  -3.2013757009922979e-03 -2.8602713578945137e-03 0.0000000000000000e+00  -3.1618573257345055e-03 -3.0535689627815329e-03 0.0000000000000000e+00  -2.5925120792548205e-03 -3.0188732520069661e-03 0.0000000000000000e+00  -3.1810701698347693e-03 -2.6450531665006640e-03 0.0000000000000000e+00  -2.8372866848728681e-03 -2.7519259179492822e-03 0.0000000000000000e+00  -2.9695195665508200e-03 -2.8807624356242656e-03 0.0000000000000000e+00  -2.7085399537636057e-03 -2.8807798151667197e-03 0.0000000000000000e+00  -2.8372782439663956e-03 -3.0128933388441077e-03 0.0000000000000000e+00  -2.8764373172581559e-03 -2.7460740625001989e-03 0.0000000000000000e+00  -2.9718346830204041e-03 -2.6423352005098630e-03 0.0000000000000000e+00  -2.7025339574166243e-03 -2.6226854831334517e-03 0.0000000000000000e+00  -2.5773700995363937e-03 -2.5606167617183706e-03 0.0000000000000000e+00  -2.7053957133761756e-03 -2.5643454817883627e-03 0.0000000000000000e+00  -3.1849474021645114e-03 -3.2438471366287398e-03 0.0000000000000000e+00  -2.8372866848728681e-03 -2.7519259179492822e-03 0.0000000000000000e+00  -2.7085399537636057e-03 -2.8807798151667197e-03 0.0000000000000000e+00  -3.1996759878913299e-03 -3.1704090956877658e-03 0.0000000000000000e+00  -2.5325246189078906e-03 -2.5957468036553436e-03 0.0000000000000000e+00  -2.5413790178503114e-03 -2.7219124604986522e-03 0.0000000000000000e+00  -2.7877387318775157e-03 -2.5765791824663548e-03 0.0000000000000000e+00  -2.9304150407647570e-03 -2.5758273127613742e-03 0.0000000000000000e+00  -3.0147185649372194e-03 -2.8331712314863108e-03 0.0000000000000000e+00  -2.9733140640571501e-03 -2.9277450629223906e-03 0.0000000000000000e+00  -2.8830514773248391e-03 -3.0129768705031970e-03 0.0000000000000000e+00  -2.8372571265241962e-03 -2.5953692311359898e-03 0.0000000000000000e+00  -2.8372657953779868e-03 -2.5789708712605562e-03 0.0000000000000000e+00  -3.0118169631341949e-03 -2.8807310444150880e-03 0.0000000000000000e+00  -2.8372409326645827e-03 -2.7915163514026162e-03 0.0000000000000000e+00  -2.5538818549994376e-03 -2.8807399661467275e-03 0.0000000000000000e+00  -2.7508225733255771e-03 -2.8807213053234867e-03 0.0000000000000000e+00  -2.5363722032451519e-03 -2.8807531635779782e-03 0.0000000000000000e+00  -2.8372613415907954e-03 -3.2090620001130072e-03 0.0000000000000000e+00  -2.8372452035493921e-03 -3.0525070325539464e-03 0.0000000000000000e+00  -2.8372657953779868e-03 -2.5789708712605562e-03 0.0000000000000000e+00  -2.5363722032451519e-03 -2.8807531635779782e-03 0.0000000000000000e+00  -3.0118169631341949e-03 -2.8807310444150880e-03 0.0000000000000000e+00  -3.1839991529238015e-03 -2.8807410659109252e-03 0.0000000000000000e+00  -3.1664742284307416e-03 -2.8807602449292956e-03 0.0000000000000000e+00  -3.1839991529238015e-03 -2.8807410659109252e-03 0.0000000000000000e+00  -3.1664742284307416e-03 -2.8807602449292956e-03 0.0000000000000000e+00  -3.1670722083625411e-03 -3.2054042801997833e-03 0.0000000000000000e+00  -3.0810212004641602e-03 -2.8548859041260979e-03 0.0000000000000000e+00  -3.1159955627502820e-03 -2.7537016516981346e-03 0.0000000000000000e+00  -2.9727015930798612e-03 -3.0160574640686311e-03 0.0000000000000000e+00  -3.1639333578323101e-03 -2.6063615092866239e-03 0.0000000000000000e+00  -3.1946904950601873e-03 -2.5609611490987178e-03 0.0000000000000000e+00  -3.1915225811258276e-03 -2.6029794798178062e-03 0.0000000000000000e+00  -2.7136969799936897e-03 -2.6182259542954808e-03 0.0000000000000000e+00  -2.5186022132143394e-03 -2.7546177104863338e-03 0.0000000000000000e+00  -3.1973896832076364e-03 -2.5903310191122690e-03 0.0000000000000000e+00  -3.0000559608676018e-03 -3.2153657117601352e-03 0.0000000000000000e+00  -2.6860172822057073e-03 -3.2302373820406981e-03 0.0000000000000000e+00  -2.8100111907225756e-03 -3.1195014482171554e-03 0.0000000000000000e+00  -3.1794553242628330e-03 -3.2189705077009145e-03 0.0000000000000000e+00  -2.5185109459238022e-03 -2.5645976418048099e-03 0.0000000000000000e+00  -2.5229667273637549e-03 -3.2084359549352411e-03 0.0000000000000000e+00  -2.5212348613134878e-03 -3.1225143282048685e-03 0.0000000000000000e+00  -3.0925015605037590e-03 -3.2148101785837947e-03 0.0000000000000000e+00  -2.5948159210006008e-03 -3.2335867178862727e-03 0.0000000000000000e+00  -3.0786727831145434e-03 -2.5688513645104531e-03 0.0000000000000000e+00  -2.5559991370795961e-03 -3.1455207534093889e-03 0.0000000000000000e+00  -2.5225752854319957e-03 -3.2408645983274917e-03 0.0000000000000000e+00  -2.9594293637116567e-03 -2.5606908673380521e-03 0.0000000000000000e+00  -3.1965262613321312e-03 -3.2423436773720616e-03 0.0000000000000000e+00  -3.0783345145735290e-03 -2.6025924155091604e-03 0.0000000000000000e+00  -3.1021650722210577e-03 -3.1172903188097386e-03 0.0000000000000000e+00  -3.0395794365798167e-03 -2.5736905168857994e-03 0.0000000000000000e+00  -3.0364397319257979e-03 -2.5925681888513737e-03 0.0000000000000000e+00  -2.5931595173622358e-03 -2.6427684499608904e-03 0.0000000000000000e+00  -2.5680849167297294e-03 -3.2427265903507431e-03 0.0000000000000000e+00  -2.8166974204433893e-03 -2.8247544137598312e-03 0.0000000000000000e+00  -3.1436748096434868e-03 -3.1158775681057048e-03 0.0000000000000000e+00  -2.9539006362478844e-03 -3.1176193167314057e-03 0.0000000000000000e+00  -3.1234504158270111e-03 -2.6631359711596207e-03 0.0000000000000000e+00  -3.1881612477460504e-03 -3.2212990230096133e-03 0.0000000000000000e+00  -2.9538900501973886e-03 -2.6894475070172856e-03 0.0000000000000000e+00  -2.7288017485995898e-03 -2.7452789804807871e-03 0.0000000000000000e+00  -3.1922031280875469e-03 -3.0281974204177222e-03 0.0000000000000000e+00  -2.5259902219001147e-03 -3.1974053723278517e-03 0.0000000000000000e+00  -3.0705210827939398e-03 -3.1026740743997803e-03 0.0000000000000000e+00  -3.0691139126641149e-03 -3.2353993577730394e-03 0.0000000000000000e+00  -3.1945008798426079e-03 -2.7581837539015397e-03 0.0000000000000000e+00  -3.2015425360512940e-03 -2.7691459991820728e-03 0.0000000000000000e+00  -2.8020619375008467e-03 -3.1467186738551186e-03 0.0000000000000000e+00  -2.6477049238094138e-03 -3.0095726369473805e-03 0.0000000000000000e+00  -2.7719779817568682e-03 -2.9729565528262059e-03 0.0000000000000000e+00  -2.5438457659590252e-03 -2.5718989250534331e-03 0.0000000000000000e+00  -3.1546739144657121e-03 -2.7275547328758504e-03 0.0000000000000000e+00  -3.2019471356130834e-03 -3.1910793526149311e-03 0.0000000000000000e+00  -2.8108089363140798e-03 -2.7062090186143173e-03 0.0000000000000000e+00  -2.8771942613946035e-03 -3.2170772616359022e-03 0.0000000000000000e+00  -3.1760954638657656e-03 -2.9466038100264395e-03 0.0000000000000000e+00  -2.9445205048711136e-03 -3.2362175145856484e-03 0.0000000000000000e+00  -2.9339688911062989e-03 -3.2410386038489174e-03 0.0000000000000000e+00  -2.5300501891816389e-03 -2.5617586143863590e-03 0.0000000000000000e+00  -2.6975862236371007e-03 -3.1595996945160470e-03 0.0000000000000000e+00  -2.5312679554491120e-03 -2.6317186326009984e-03 0.0000000000000000e+00  -2.5639354651185321e-03 -2.7932573370917442e-03 0.0000000000000000e+00  -2.6672511771676549e-03 -3.2110815256144948e-03 0.0000000000000000e+00  -3.1408198685909565e-03 -2.5625850208654895e-03 0.0000000000000000e+00  -2.8978231286852316e-03 -3.1822188172497498e-03 0.0000000000000000e+00  -2.6059685025588545e-03 -2.7710238892139833e-03 0.0000000000000000e+00  -3.0561487208645224e-03 -3.2342930437788396e-03 0.0000000000000000e+00  -2.7356790679993613e-03 -2.9674989599210166e-03 0.0000000000000000e+00  -2.7422003553430139e-03 -3.1202992115572643e-03 0.0000000000000000e+00  -2.5940877323791765e-03 -3.0348109870454911e-03 0.0000000000000000e+00  -2.7002945903742775e-03 -2.5631797701675956e-03 0.0000000000000000e+00  -2.5431838996440147e-03 -3.0362273222746448e-03 0.0000000000000000e+00  -2.5592959725271413e-03 -2.7265691848832071e-03 0.0000000000000000e+00  -3.1486702037886167e-03 -2.8485185824928521e-03 0.0000000000000000e+00  -3.0525665252517892e-03 -2.6160179751111186e-03 0.0000000000000000e+00  -2.9507646436065489e-03 -2.6329993304771756e-03 0.0000000000000000e+00  -3.0357790682230983e-03 -3.2415815975921623e-03 0.0000000000000000e+00  -2.8796438842864790e-03 -3.2384303237780404e-03 0.0000000000000000e+00  -2.7527456101668216e-03 -2.5635403968368125e-03 0.0000000000000000e+00  -2.5870959938780829e