<?xml version="1.0"?>
<VTKFile type="UnstructuredGrid"  version="0.1"  >
<UnstructuredGrid>
<Piece  NumberOfPoints="1380" NumberOfCells="2630">
<Points>
<DataArray  type="Float64"  NumberOfComponents="3"  format="ascii">-1 -1 0  1 -1 0  1 1 0  -1 1 0  0 -1 0  1 0 0  0 1 0  -1 0 0  0 0 0  -1 -0.5 0  -0.5 -1 0  -0.5 1 0  -1 0.5 0  1 -0.5 0  0.5 -1 0  1 0.5 0  0.5 1 0  0.4166666666666666 -0.4166666666666667 0  -0.4166666666666667 0.4166666666666667 0  -0.25 -0.5 0  0.5 0.25 0  -0.4861111111111112 -0.06944444444444445 0  0.0732758620689655 0.507183908045977 0  -0.625 -0.625 0  0.625 0.625 0  0.7380952380952381 -0.25 0  -0.7099116161616161 0.2105429292929293 0  -0.25 0.7380952380952381 0  0.105392156862745 -0.6348039215686275 0  0.6770833333333334 -0.6770833333333333 0  -0.6770833333333334 0.6770833333333334 0  0.3472222222222222 -0.06944444444444446 0  -0.7264957264957265 -0.3044871794871795 0  0.3141940982507127 0.7297313660835709 0  0.02049587951122483 -0.3227479397556124 0  -0.2690972222222223 0.1475694444444444 0  0.3859500089908372 -0.7274430156831472 0  -0.2228477945123298 -0.1761765495248019 0  0.2182539682539683 0.1884920634920635 0  0.75 0.375 0  -0.145442219440968 -0.7602211097204841 0  0.7088913690476191 0.0427827380952381 0  -0.75 -1 0  -1 -0.75 0  1 0.75 0  0.75 1 0  -0.7439982703698937 -0.04614153195464455 0  -0.4609235096577606 -0.3356498099556895 0  0.4063134471431929 0.4895621842856023 0  0.25 -1 0  -0.25 -1 0  -0.75 1 0  0.75 -1 0  -1 -0.25 0  -1 0.25 0  1 -0.25 0  -0.25 1 0  1 -0.75 0  -1 0.75 0  0.25 1 0  1 0.25 0  -0.4041423272138783 -0.7597141090712928 0  0.06500839607911253 0.7578103030529481 0  -0.1572801182352047 0.3838997021864289 0  -0.6528005242053915 0.4409494757946086 0  -0.4930160984848485 0.1544744318181818 0  -0.4732142857142858 0.7752976190476191 0  0.6398809523809523 -0.4538690476190476 0  0.5166054117396399 -0.2161233620965164 0  -0.002273787244753427 0.2232363985975174 0  0.1500564496765022 -0.1524955293952667 0  0.2016720420046758 -0.4410343282803009 0  -0.08495178036419618 0.6274139771124571 0  -0.8367311471133162 0.3642591720794645 0  -0.8333333333333334 -0.625 0  -0.594323836800685 -0.8231079456002283 0  -0.4466957714776065 -0.5349126855671806 0  0.8125 0.5625 0  0.78125 0.78125 0  0.5091392650016769 0.7947130883338923 0  0.125 -0.8382681931833136 0  -0.8184523809523809 -0.8184523809523809 0  -0.07781530426104531 -0.5819319697006881 0  0.5085055196703295 0.04967610411902112 0  0.2918471072074933 -0.276017202318847 0  0.5120763537765269 -0.5898771553229597 0  0.625 -0.8585349462365591 0  0.8158532234335381 -0.8158532234335381 0  -0.5198088446315396 0.5739411553684605 0  -0.8585349462365591 0.625 0  -0.8150493805516597 0.8156205699829586 0  0.8585349462365591 -0.625 0  -0.2688268348649726 0.5439331383603209 0  0.8242100426758139 -0.4436043596336612 0  0.5833756314287952 0.4479378157143976 0  0.8690476190476191 -0.125 0  -0.125 0.8690476190476191 0  -0.8692745600729823 0.125 0  0.8696725120759167 0.125 0  -0.625 0.8711516477451908 0  0.2339522463269718 0.3879558377955778 0  0.2453709502295031 0.5655822922838026 0  0.1730610651637797 0.02021709580868947 0  0.3245402594056757 -0.5644672020485209 0  -0.7291666666666666 -0.4816595441595442 0  -1 -0.375 0  -0.5811140848639904 -0.2127276307675001 0  0.673332592838314 0.2158348143233718 0  0.375 1 0  -0.5714768890989919 0.2985103444040069 0  -1 -0.125 0  -0.8453692574786325 -0.1875 0  -0.3144549134065865 -0.02408675326008025 0  -0.2898414972096258 -0.3336092734780093 0  -0.1075052092206287 -0.4224330421314983 0  -0.05043970703604117 -0.1652278959397459 0  0.6459672950297897 -0.1113415301525317 0  0.4645210271029513 0.6398480556579343 0  0.3512863754411909 0.0937979496253573 0  -0.6063160985568274 0.03891469652249891 0  -0.3428819444444445 0.8690476190476191 0  0.625 1 0  -0.1602164796159982 0.02697860906625157 0  0.04648110064133829 -0.4808416424239687 0  1 0.875 0  -0.3836102479201657 0.6484936449177356 0  -0.3776011723096096 0.263078478984336 0  -0.6024978259969829 -0.3949628096211138 0  0.125 1 0  0.2010781308272777 0.8456221018461906 0  0.2822509696388829 -0.845902544691141 0  -0.3285533674953515 -0.6289773550938936 0  0.3461306793221754 0.278777492464833 0  0.4737475672408696 -0.8508448959534423 0  0.2384632828836344 -0.7029523187242811 0  -0.004777287059791593 0.3759269695907358 0  -0.8499735021850066 -0.3912320205328522 0  0.1222536293721587 0.2963971539625205 0  -0.3769456520999688 -0.203572526805711 0  -0.2749617205755651 -0.8464290792698902 0  0.004805888512766143 -0.747174355248311 0  -0.125 -1 0  -0.06001061822252458 -0.8724007765244854 0  0.875 0.4375 0  0.854421179608893 0.271342359217786 0  0.875 1 0  -0.1499861095763589 0.2358309656934888 0  0.3381943639137225 0.8663061796405532 0  -0.7853090110442228 0.4998412775277108 0  0.7398165998560814 -0.5535192694951373 0  0.1580042122341573 -0.3100246140259917 0  -0.7291666666666667 -0.7142857142857142 0  -0.375 -1 0  0.6483368386154684 0.8514905990110488 0  -0.1295370103291928 -0.2826118305021242 0  0.07458201853700455 0.1123894386563915 0  0.6146465857036327 -0.3161203659316075 0  0.5551898493894731 -0.740296118159085 0  0.375 -1 0  0.482702798370208 -0.084133350091034 0  0.87890625 0.68359375 0  -0.05917195534525846 0.4971092425697621 0  0.1260710309213975 0.6343750312956699 0  0.8690476190476191 -0.3077066815262848 0  -0.2912010232560567 0.3668168386732139 0  -0.875 1 0  -1 0.875 0  1 -0.875 0  0.875 -1 0  -0.8689564281364567 -0.006189266075306407 0  -0.7449425635110547 0.08458938160051771 0  -0.7150266761936593 -0.1739444581417552 0  -0.5260034831318311 -0.711099823962112 0  -0.4724626808827322 -0.871722230709409 0  0.4734436795977052 0.377714794132168 0  -0.875 -1 0  -1 -0.875 0  0.6927189078571988 0.5156567235715964 0  -0.3742497615796874 -0.4296005251260107 0  -0.1969436423297711 -0.6387157229772615 0  -0.6179496409766825 -0.08933356056510935 0  -0.424405057115988 0.04452428810878029 0  -0.08479048335844169 0.1279607007132633 0  0.003830300099055113 0.8712085230656206 0  0.8748778838820267 -1.379218479898026e-05 0  -0.375 1 0  -0.625 1 0  1 0.125 0  -0.125 1 0  1 -0.375 0  1 -0.125 0  1 -0.625 0  0.625 -1 0  0.125 -1 0  -0.625 -1 0  -1 -0.625 0  -1 0.125 0  -1 0.375 0  -1 0.625 0  1 0.375 0  1 0.625 0  0.6325660748712082 0.3335187599557389 0  -0.06420945895056573 0.7549874027425891 0  -0.8769015540914771 0.2478802253893416 0  0.871875 0.871875 0  -0.6868091492840067 0.3270978624973681 0  -0.5363597469565949 0.412994850055505 0  -0.6803734992638302 0.5574295000651103 0  -0.7076253581162534 -0.8803439094224437 0  -0.8778089002295137 -0.5106896447504627 0  -0.3860184984222981 0.530566778071246 0  0.6109900617121508 0.1128453077697081 0  0.3896945134930274 -0.1915382873255086 0  0.7605656944697778 -0.06822134873122943 0  0.3576151269893478 0.5948388411612135 0  -0.5689902680792265 -0.5143596830118065 0  0.6262446286847614 -0.5735657901943212 0  0.2030558252325225 -0.5625263842513452 0  0.6123273142928579 0.7407533260723429 0  0.4016460890123554 -0.3042863223111857 0  -0.59039693199147 0.7578418819188018 0  0.7276932493917544 -0.3705808024528924 0  0.5222536818742854 -0.4713886230400014 0  -0.5101986527137737 0.8848365765607674 0  0.510560172809238 0.5356013299918891 0  -0.3603569195756083 0.75823710606415 0  0.1967279277813232 0.728226870058472 0  -0.6086880986371127 0.1545624071548516 0  -0.38105366729386 0.1511189987807864 0  -0.2944659463671584 -0.7359061804869591 0  0.5060729154966499 -0.3475227845833823 0  -0.09281616240412746 -0.06197858250969457 0  0.7649739583333334 0.6673177083333334 0  0.7628906249999999 0.890234375 0  -0.2666864184909611 0.2585504071132311 0  0.3635064892129658 0.3878003602709461 0  -0.2339409722222222 0.8901937905844155 0  -0.1718792125974916 -0.8957733325456778 0  0.1001768566329531 0.4023510017391879 0  0.3120260172693757 -0.4540546875576884 0  0.7804062804433681 0.1896628610854537 0  0.4087715451998049 0.187961780041608 0  -0.1584963477271457 0.5451611892421655 0  -0.8926817849258324 0.463022006336401 0  0.2338091473445219 -0.07576267331277289 0  0.08171112182813692 -0.2349087687359925 0  0.04635385178956847 -0.1044635073718474 0  -0.4377391632114205 -0.6448874471423088 0  -0.1907678351227189 0.6480215912813945 0  0.300605946475244 0.4741444604171038 0  -0.2145033720757486 -0.06751709909419711 0  0.6069191921170397 -0.005492331448357812 0  0.0214718770761248 0.6032397936031719 0  0.5476675683364878 0.8992752415326501 0  0.4387475014316537 0.9093708953002239 0  -0.4932997685306436 -0.4381009159993523 0  0.2515197695339056 -0.1791673369138964 0  -0.7291666666666667 -0.6088789682539681 0  -0.9166666666666667 -0.6875 0  0.620579540363709 -0.2122431523583302 0  -0.484950136419973 0.6719440339397442 0  0.2857044415400258 0.0137589173127316 0  -0.8945708364098356 -0.288306105327986 0  0.4043102720140535 0.7842914560451557 0  0.04123256238752064 -0.9026968245801402 0  0.2003676884403109 -0.9091888601740487 0  0.1068775558538842 -0.7373377130403223 0  -0.4804566783514427 -0.1763307203045643 0  0.108286342087769 -0.3993789328997278 0  -0.191883080105361 -0.3640821726430649 0  -0.07025064492006244 0.2984876656890053 0  -0.7039324641409584 0.788312126296613 0  -0.7311286585775438 0.8932502354831682 0  0.5171409396884947 0.1503852691889257 0  0.4229392823658633 -0.003216522184234835 0  -0.5621736087218259 -0.919558629836806 0  -0.626474064879544 -0.7266572613636506 0  0.2446828746617422 0.2867616783302419 0  0.1759429608742923 0.4776611759306416 0  -0.3468240303741654 -0.5260416435617549 0  -0.7465808808425306 0.4069574477998361 0  -0.7819962170660292 0.2802441065650652 0  -0.3742623214119594 -0.8547800509641984 0  0.1014498009713561 0.8506721983266377 0  0.4285217620918213 -0.5230190595570253 0  0.4091738370487775 -0.6256346204225141 0  0.78125 0.46875 0  0.90625 0.53125 0  -0.4791801348852565 0.2553992655702126 0  0.7843318610782772 -0.7086046956885941 0  0.8909728264971901 -0.7355183796514634 0  0.7041908166528879 -0.7830649143180282 0  0.7311821352
[...]
<PointData  Vectors="f_22"> 
<DataArray  type="Float64"  Name="f_22"  NumberOfComponents="3" format="ascii">-2.8512416710001951e-03 -2.8937916254534392e-03 0.0000000000000000e+00  -2.8512416710001951e-03 -2.8937916254534392e-03 0.0000000000000000e+00  -2.8512416710001951e-03 -2.8937916254534392e-03 0.0000000000000000e+00  -2.8512416710001951e-03 -2.8937916254534392e-03 0.0000000000000000e+00  -2.8512354121389420e-03 -2.9106357216400918e-03 0.0000000000000000e+00  -2.8691119580637127e-03 -2.8937846176984128e-03 0.0000000000000000e+00  -2.8512354121389420e-03 -2.9106357216400918e-03 0.0000000000000000e+00  -2.8691119580637127e-03 -2.8937846176984128e-03 0.0000000000000000e+00  -2.8691147608038772e-03 -2.9106445921575179e-03 0.0000000000000000e+00  -2.7445044364480049e-03 -2.8937873825769550e-03 0.0000000000000000e+00  -2.8512397465563300e-03 -2.7865406577268804e-03 0.0000000000000000e+00  -2.8512397465563300e-03 -2.7865406577268804e-03 0.0000000000000000e+00  -2.9758507172152325e-03 -2.8937853457028104e-03 0.0000000000000000e+00  -2.7445044364480049e-03 -2.8937873825769550e-03 0.0000000000000000e+00  -2.8512362168295878e-03 -3.0178944132798658e-03 0.0000000000000000e+00  -2.9758507172152325e-03 -2.8937853457028104e-03 0.0000000000000000e+00  -2.8512362168295878e-03 -3.0178944132798658e-03 0.0000000000000000e+00  -2.7507560281314443e-03 -3.0161294381199333e-03 0.0000000000000000e+00  -2.9742163967034188e-03 -2.7926587803614837e-03 0.0000000000000000e+00  -2.7445088649112816e-03 -2.8263776765505891e-03 0.0000000000000000e+00  -2.9482897882134600e-03 -3.0178947472019771e-03 0.0000000000000000e+00  -2.8438673203738229e-03 -2.7870180953893883e-03 0.0000000000000000e+00  -2.9756173154788373e-03 -2.9368170079071419e-03 0.0000000000000000e+00  -2.7498954108705368e-03 -2.7921263632215824e-03 0.0000000000000000e+00  -2.9636251327363364e-03 -3.0058639853910527e-03 0.0000000000000000e+00  -2.7846998960046319e-03 -2.9812745748983190e-03 0.0000000000000000e+00  -2.9382795449331774e-03 -2.8056301816823661e-03 0.0000000000000000e+00  -2.9388854810589978e-03 -2.8263751779211495e-03 0.0000000000000000e+00  -2.7510500232695335e-03 -2.9477844520770973e-03 0.0000000000000000e+00  -2.7572302563578003e-03 -2.9959945996168025e-03 0.0000000000000000e+00  -2.9536834793063597e-03 -2.7995360586151622e-03 0.0000000000000000e+00  -2.8438692111116427e-03 -3.0087153677511554e-03 0.0000000000000000e+00  -2.7707970465980602e-03 -2.8091096077236971e-03 0.0000000000000000e+00  -2.9411033453815485e-03 -3.0033844210663836e-03 0.0000000000000000e+00  -2.7667025966558044e-03 -2.9180695165070799e-03 0.0000000000000000e+00  -2.9198973345955915e-03 -2.8212541081441018e-03 0.0000000000000000e+00  -2.7669400151951844e-03 -3.0134997287403465e-03 0.0000000000000000e+00  -2.8069788968689735e-03 -2.8341329942220806e-03 0.0000000000000000e+00  -2.9321592750303775e-03 -2.9819867705580647e-03 0.0000000000000000e+00  -2.9704671635640409e-03 -2.9780552366951078e-03 0.0000000000000000e+00  -2.7745359129493540e-03 -2.8587443239289209e-03 0.0000000000000000e+00  -2.8845313675416786e-03 -2.9887176738770064e-03 0.0000000000000000e+00  -2.8512392485949729e-03 -2.8144692494764282e-03 0.0000000000000000e+00  -2.7720705033171052e-03 -2.8937907414678904e-03 0.0000000000000000e+00  -2.9356484285332392e-03 -2.8937873623585330e-03 0.0000000000000000e+00  -2.8512401677239819e-03 -2.9780508278150538e-03 0.0000000000000000e+00  -2.8523084903253428e-03 -2.8130455134579755e-03 0.0000000000000000e+00  -2.7639966360723002e-03 -2.7884447034814209e-03 0.0000000000000000e+00  -2.9760831414690010e-03 -3.0153669454255124e-03 0.0000000000000000e+00  -2.8512358979096712e-03 -2.9899701708876450e-03 0.0000000000000000e+00  -2.8512358046002551e-03 -2.8263786281164534e-03 0.0000000000000000e+00  -2.8512392485949729e-03 -2.8144692494764282e-03 0.0000000000000000e+00  -2.8512401677239819e-03 -2.9780508278150538e-03 0.0000000000000000e+00  -2.7846999612460475e-03 -2.8937868922707605e-03 0.0000000000000000e+00  -2.9482869660275579e-03 -2.8937850033164750e-03 0.0000000000000000e+00  -2.7846999612460475e-03 -2.8937868922707605e-03 0.0000000000000000e+00  -2.8512358046002551e-03 -2.8263786281164534e-03 0.0000000000000000e+00  -2.7720705033171052e-03 -2.8937907414678904e-03 0.0000000000000000e+00  -2.9356484285332392e-03 -2.8937873623585330e-03 0.0000000000000000e+00  -2.8512358979096712e-03 -2.9899701708876450e-03 0.0000000000000000e+00  -2.9482869660275579e-03 -2.8937850033164750e-03 0.0000000000000000e+00  -2.7744144024029072e-03 -2.7942461359870378e-03 0.0000000000000000e+00  -2.9334591523418312e-03 -2.9339264029412467e-03 0.0000000000000000e+00  -2.9714272417109872e-03 -2.8547745990475113e-03 0.0000000000000000e+00  -2.9755099474627735e-03 -2.7957205564287770e-03 0.0000000000000000e+00  -2.9220403963615958e-03 -2.7867507056811361e-03 0.0000000000000000e+00  -2.9284094701191150e-03 -2.7876563249663176e-03 0.0000000000000000e+00  -2.7470039797927023e-03 -3.0033097931926405e-03 0.0000000000000000e+00  -2.7944891365447601e-03 -3.0172924362020874e-03 0.0000000000000000e+00  -2.9416425083474288e-03 -2.9098207025165814e-03 0.0000000000000000e+00  -2.8147893358273918e-03 -2.9622611440522023e-03 0.0000000000000000e+00  -2.7481279610511457e-03 -2.9774911582786893e-03 0.0000000000000000e+00  -2.9632163682808605e-03 -2.8798332108485123e-03 0.0000000000000000e+00  -2.9691849432143787e-03 -2.8381038683607334e-03 0.0000000000000000e+00  -2.7498939308769504e-03 -2.8370859644416234e-03 0.0000000000000000e+00  -2.7915658661192013e-03 -2.7891260630959090e-03 0.0000000000000000e+00  -2.7442266804159139e-03 -2.7895666229756097e-03 0.0000000000000000e+00  -2.9718861928294395e-03 -2.9594711695215136e-03 0.0000000000000000e+00  -2.9266485670949296e-03 -2.9690829317706932e-03 0.0000000000000000e+00  -2.9225690764757553e-03 -3.0176053404430583e-03 0.0000000000000000e+00  -2.7960905581118308e-03 -2.9542676578526721e-03 0.0000000000000000e+00  -2.7902036702447857e-03 -2.8326744452124562e-03 0.0000000000000000e+00  -2.7460423070381980e-03 -2.8823939832276842e-03 0.0000000000000000e+00  -2.8869877981688350e-03 -3.0176261595140858e-03 0.0000000000000000e+00  -2.7777604996494722e-03 -2.9991541007955013e-03 0.0000000000000000e+00  -2.7465929205875671e-03 -3.0174858997610719e-03 0.0000000000000000e+00  -2.8023790649854097e-03 -3.0058604184430562e-03 0.0000000000000000e+00  -2.7894510025503754e-03 -2.9584078770543516e-03 0.0000000000000000e+00  -2.9706782253231859e-03 -2.7862380766667636e-03 0.0000000000000000e+00  -2.9636232030379561e-03 -2.8448761254342664e-03 0.0000000000000000e+00  -2.9160116550564800e-03 -2.8316854989585381e-03 0.0000000000000000e+00  -2.7498914400936811e-03 -2.9443381655269501e-03 0.0000000000000000e+00  -2.9735139436168384e-03 -2.8213230055741099e-03 0.0000000000000000e+00  -2.7478879382587334e-03 -2.9557203322509292e-03 0.0000000000000000e+00  -2.9757642907051879e-03 -3.0117656713017117e-03 0.0000000000000000e+00  -2.8241620121823626e-03 -2.9407432738215882e-03 0.0000000000000000e+00  -2.8982335840876229e-03 -2.8657287964188641e-03 0.0000000000000000e+00  -2.9126956611169054e-03 -2.8483022217439336e-03 0.0000000000000000e+00  -2.9126968098359880e-03 -2.9405284283322143e-03 0.0000000000000000e+00  -2.8975135464436685e-03 -2.7921239477947915e-03 0.0000000000000000e+00  -2.9718415151463451e-03 -2.9860402614954335e-03 0.0000000000000000e+00  -2.9715750207956349e-03 -2.9888636563466385e-03 0.0000000000000000e+00  -2.8764424938281566e-03 -2.9692735740578634e-03 0.0000000000000000e+00  -2.7450686217027689e-03 -3.0051702297099526e-03 0.0000000000000000e+00  -2.7452147862902340e-03 -2.8096949807769173e-03 0.0000000000000000e+00  -2.7567281315351968e-03 -2.8937860365844427e-03 0.0000000000000000e+00  -2.7955156431726659e-03 -2.7881527984578098e-03 0.0000000000000000e+00  -2.9396984455947379e-03 -2.9967942614609112e-03 0.0000000000000000e+00  -2.8512362283662973e-03 -3.0123132317378875e-03 0.0000000000000000e+00  -2.9587229821266578e-03 -2.7875644789442872e-03 0.0000000000000000e+00  -2.8241644014375565e-03 -2.8937825049766513e-03 0.0000000000000000e+00  -2.8033404747382648e-03 -2.8407511442102200e-03 0.0000000000000000e+00  -2.8603483907570313e-03 -2.8102832753318981e-03 0.0000000000000000e+00  -2.7644177985632241e-03 -2.8160247412448987e-03 0.0000000000000000e+00  -2.7500808464066737e-03 -2.8718409567016273e-03 0.0000000000000000e+00  -2.8105587955324016e-03 -2.8922840561122322e-03 0.0000000000000000e+00  -2.8289270878504623e-03 -3.0022045143606774e-03 0.0000000000000000e+00  -2.9610621503854484e-03 -3.0181149722842250e-03 0.0000000000000000e+00  -2.9023269041618732e-03 -3.0092953116806062e-03 0.0000000000000000e+00  -2.8831546264160954e-03 -2.7901679132599582e-03 0.0000000000000000e+00  -2.8982349565180713e-03 -2.8043380262993563e-03 0.0000000000000000e+00  -2.8512357938218248e-03 -3.0058632056230855e-03 0.0000000000000000e+00  -2.8788768863899890e-03 -2.8538041544912724e-03 0.0000000000000000e+00  -2.7452521771646524e-03 -2.9273851568718369e-03 0.0000000000000000e+00  -2.8961838833929275e-03 -2.8937860279413079e-03 0.0000000000000000e+00  -2.9594609371989379e-03 -2.7971968697560780e-03 0.0000000000000000e+00  -2.9513109297892924e-03 -2.7981459496015716e-03 0.0000000000000000e+00  -2.7536453514844968e-03 -2.7898222262985163e-03 0.0000000000000000e+00  -2.8512360412647816e-03 -2.9542642934273886e-03 0.0000000000000000e+00  -2.9061919121459103e-03 -2.9773225077062222e-03 0.0000000000000000e+00  -2.7984317873967768e-03 -2.9971894225412953e-03 0.0000000000000000e+00  -2.7503524289831565e-03 -2.8072386381869860e-03 0.0000000000000000e+00  -2.9547473854689035e-03 -3.0085593112497079e-03 0.0000000000000000e+00  -2.7999629159391692e-03 -3.0181932027399036e-03 0.0000000000000000e+00  -2.7619081538451909e-03 -2.9871617586410080e-03 0.0000000000000000e+00  -2.9705694915749259e-03 -2.9089071757858508e-03 0.0000000000000000e+00  -2.7541876066314360e-03 -2.8421866742264039e-03 0.0000000000000000e+00  -2.9583197616678603e-03 -2.9533795437175765e-03 0.0000000000000000e+00  -2.7983160161756887e-03 -2.7982552709558749e-03 0.0000000000000000e+00  -2.7985949040915266e-03 -2.8197373439345303e-03 0.0000000000000000e+00  -2.7713979583734011e-03 -2.9123830400885294e-03 0.0000000000000000e+00  -2.8512345736279856e-03 -2.8657314894314830e-03 0.0000000000000000e+00  -2.8068083385894083e-03 -2.8888082281376590e-03 0.0000000000000000e+00  -2.9753723288549428e-03 -2.9386969729532993e-03 0.0000000000000000e+00  -2.9531464927472742e-03 -2.9457312191653339e-03 0.0000000000000000e+00  -2.8512386703334600e-03 -2.9386945944143939e-03 0.0000000000000000e+00  -2.9448441175589399e-03 -2.8572141777771288e-03 0.0000000000000000e+00  -2.8991824073774770e-03 -3.0073700354712385e-03 0.0000000000000000e+00  -2.9758516038277932e-03 -2.8233960421584613e-03 0.0000000000000000e+00  -2.7446386509875445e-03 -2.9808161695350408e-03 0.0000000000000000e+00  -2.7695264363841784e-03 -2.9647206203312587e-03 0.0000000000000000e+00  -2.7641746785729933e-03 -2.8096968471832471e-03 0.0000000000000000e+00  -2.8512377506839503e-03 -2.7985702870792057e-03 0.0000000000000000e+00  -2.9042211617591367e-03 -3.0017717292090155e-03 0.0000000000000000e+00  -2.7760886525757802e-03 -2.8641721556582197e-03 0.0000000000000000e+00  -2.9085649504781825e-03 -2.9372716203177277e-03 0.0000000000000000e+00  -2.7681526462669842e-03 -3.0074945223678945e-03 0.0000000000000000e+00  -2.7698038847725624e-03 -3.0147027815973569e-03 0.0000000000000000e+00  -2.8512362283662973e-03 -3.0123132317378875e-03 0.0000000000000000e+00  -2.8385809313721828e-03 -3.0181789511555279e-03 0.0000000000000000e+00  -2.9522618333272829e-03 -2.9373424798749470e-03 0.0000000000000000e+00  -2.9759231624175574e-03 -2.8891171123815508e-03 0.0000000000000000e+00  -2.9620288338028755e-03 -2.9546182071488744e-03 0.0000000000000000e+00  -2.7700499695936746e-03 -2.9407417282406095e-03 0.0000000000000000e+00  -2.9695002053647182e-03 -2.8156841144259251e-03 0.0000000000000000e+00  -2.8512415308003746e-03 -2.8501695933827384e-03 0.0000000000000000e+00  -2.8961838833929275e-03 -2.8937860279413079e-03 0.0000000000000000e+00  -2.8076589875840798e-03 -2.8937919591452005e-03 0.0000000000000000e+00  -2.8512386703334600e-03 -2.9386945944143939e-03 0.0000000000000000e+00  -2.8668615517272347e-03 -2.8482034600145283e-03 0.0000000000000000e+00  -2.8991795425162034e-03 -2.8132663370677674e-03 0.0000000000000000e+00  -2.8076995828022425e-03 -2.8066778747104512e-03 0.0000000000000000e+00  -2.7635248133563166e-03 -2.7862424466541537e-03 0.0000000000000000e+00  -2.8065993624902179e-03 -2.7877027849052740e-03 0.0000000000000000e+00  -2.9707709342628391e-03 -3.0181958701054694e-03 0.0000000000000000e+00  -2.8512415308003746e-03 -2.8501695933827384e-03 0.0000000000000000e+00  -2.8076589875840798e-03 -2.8937919591452005e-03 0.0000000000000000e+00  -2.9752731237742787e-03 -2.9925354572740734e-03 0.0000000000000000e+00  -2.7492861309346911e-03 -2.7986940715446005e-03 0.0000000000000000e+00  -2.7515455688702085e-03 -2.8419892743137038e-03 0.0000000000000000e+00  -2.8367252676096606e-03 -2.7913396762507823e-03 0.0000000000000000e+00  -2.8851549516695834e-03 -2.7917690522035600e-03 0.0000000000000000e+00  -2.9136663941063084e-03 -2.8798985662975992e-03 0.0000000000000000e+00  -2.8974848830992852e-03 -2.9120299526791413e-03 0.0000000000000000e+00  -2.8691053728967944e-03 -2.9387335059429176e-03 0.0000000000000000e+00  -2.8512377506839503e-03 -2.7985702870792057e-03 0.0000000000000000e+00  -2.8512372233376188e-03 -2.7921244952717251e-03 0.0000000000000000e+00  -2.9126942259798789e-03 -2.8937857608143953e-03 0.0000000000000000e+00  -2.8512345736279856e-03 -2.8657314894314830e-03 0.0000000000000000e+00  -2.7567281315351968e-03 -2.8937860365844427e-03 0.0000000000000000e+00  -2.8241644014375565e-03 -2.8937825049766513e-03 0.0000000000000000e+00  -2.7498927876360123e-03 -2.8937862956472144e-03 0.0000000000000000e+00  -2.8512357938218248e-03 -3.0058632056230855e-03 0.0000000000000000e+00  -2.8512360412647816e-03 -2.9542642934273886e-03 0.0000000000000000e+00  -2.8512372233376188e-03 -2.7921244952717251e-03 0.0000000000000000e+00  -2.7498927876360123e-03 -2.8937862956472144e-03 0.0000000000000000e+00  -2.9126942259798789e-03 -2.8937857608143953e-03 0.0000000000000000e+00  -2.9704653892112247e-03 -2.8937864058964724e-03 0.0000000000000000e+00  -2.9636249865857443e-03 -2.8937886999981046e-03 0.0000000000000000e+00  -2.9704653892112247e-03 -2.8937864058964724e-03 0.0000000000000000e+00  -2.9636249865857443e-03 -2.8937886999981046e-03 0.0000000000000000e+00  -2.9648547879053064e-03 -3.0045968987154636e-03 0.0000000000000000e+00  -2.9342538622897292e-03 -2.8872906894433165e-03 0.0000000000000000e+00  -2.9477846827593054e-03 -2.8507800400216785e-03 0.0000000000000000e+00  -2.8972670937478630e-03 -2.9397720225876277e-03 0.0000000000000000e+00  -2.9638185299462978e-03 -2.8012269526118535e-03 0.0000000000000000e+00  -2.9739638316327701e-03 -2.7863305219250237e-03 0.0000000000000000e+00  -2.9723645366875641e-03 -2.8000976399505727e-03 0.0000000000000000e+00  -2.8094008634091169e-03 -2.8051805011115468e-03 0.0000000000000000e+00  -2.7442718281492371e-03 -2.8510821581184316e-03 0.0000000000000000e+00  -2.9744530885376665e-03 -2.7968260716022750e-03 0.0000000000000000e+00  -2.9087163518848832e-03 -3.0080510416747360e-03 0.0000000000000000e+00  -2.8020629880283767e-03 -3.0138785113877375e-03 0.0000000000000000e+00  -2.8443028551856991e-03 -2.9750904207834945e-03 0.0000000000000000e+00  -2.9681296627085572e-03 -3.0101593847014683e-03 0.0000000000000000e+00  -2.7442241667484835e-03 -2.7874389395836302e-03 0.0000000000000000e+00  -2.7455312842337111e-03 -3.0056528158214145e-03 0.0000000000000000e+00  -2.7449826481158665e-03 -2.9778715085786518e-03 0.0000000000000000e+00  -2.9381760330735528e-03 -3.0078533349730072e-03 0.0000000000000000e+00  -2.7708405759989331e-03 -3.0149754882586974e-03 0.0000000000000000e+00  -2.9334494323486910e-03 -2.7888136571054983e-03 0.0000000000000000e+00  -2.7574641169501603e-03 -2.9840024422234782e-03 0.0000000000000000e+00  -2.7457708598379771e-03 -3.0170171962825760e-03 0.0000000000000000e+00  -2.8927549623201029e-03 -2.7863298013647000e-03 0.0000000000000000e+00  -2.9741310727119780e-03 -3.0175519436479652e-03 0.0000000000000000e+00  -2.9333356934573068e-03 -2.8010709298651169e-03 0.0000000000000000e+00  -2.9414927660949492e-03 -2.9761107699772605e-03 0.0000000000000000e+00  -2.9220643875756233e-03 -2.7903941598189362e-03 0.0000000000000000e+00  -2.9210023457564463e-03 -2.7975975904902853e-03 0.0000000000000000e+00  -2.7688144018268583e-03 -2.8148979202958545e-03 0.0000000000000000e+00  -2.7616396597200180e-03 -3.0177065373459835e-03 0.0000000000000000e+00  -2.8465670601671889e-03 -2.8770345779752429e-03 0.0000000000000000e+00  -2.9557492656447516e-03 -2.9738407886178053e-03 0.0000000000000000e+00  -2.8908655789272189e-03 -2.9744365278814885e-03 0.0000000000000000e+00  -2.9502817704369017e-03 -2.8218841895324962e-03 0.0000000000000000e+00  -2.9718264897853740e-03 -3.0109285706805908e-03 0.0000000000000000e+00  -2.8908714476278282e-03 -2.8308984791316815e-03 0.0000000000000000e+00  -2.8145120576256125e-03 -2.8499695623193551e-03 0.0000000000000000e+00  -2.9731494355516785e-03 -2.9460407294124567e-03 0.0000000000000000e+00  -2.7469908985809414e-03 -3.0029927213602640e-03 0.0000000000000000e+00  -2.9324913601399593e-03 -2.9693320665044503e-03 0.0000000000000000e+00  -2.9320125176814913e-03 -3.0155597819070310e-03 0.0000000000000000e+00  -2.9734179503794565e-03 -2.8543694212767078e-03 0.0000000000000000e+00  -2.9761055854734680e-03 -2.8559963729053455e-03 0.0000000000000000e+00  -2.8415937350129913e-03 -2.9860054265982809e-03 0.0000000000000000e+00  -2.7889651788512338e-03 -2.9397413164119839e-03 0.0000000000000000e+00  -2.8313584444876337e-03 -2.9273442538129066e-03 0.0000000000000000e+00  -2.7523586137925258e-03 -2.7903868147154736e-03 0.0000000000000000e+00  -2.9595520753265699e-03 -2.8439203721469411e-03 0.0000000000000000e+00  -2.9761954145153331e-03 -3.0008739160104661e-03 0.0000000000000000e+00  -2.8445658982755827e-03 -2.8366199023534505e-03 0.0000000000000000e+00  -2.8671154143074295e-03 -3.0086470936459826e-03 0.0000000000000000e+00  -2.9669659735683386e-03 -2.9184206870200903e-03 0.0000000000000000e+00  -2.8876752060439490e-03 -3.0153428948273540e-03 0.0000000000000000e+00  -2.8840867976205895e-03 -3.0173711657813709e-03 0.0000000000000000e+00  -2.7484162807404019e-03 -2.7867470372412917e-03 0.0000000000000000e+00  -2.8060100400380235e-03 -2.9903324372992923e-03 0.0000000000000000e+00  -2.7482132996908522e-03 -2.8096973932591703e-03 0.0000000000000000e+00  -2.7590387604371699e-03 -2.8641429591181374e-03 0.0000000000000000e+00  -2.7956554186114547e-03 -3.0065695560201771e-03 0.0000000000000000e+00  -2.9547766988531222e-03 -2.7870658687450256e-03 0.0000000000000000e+00  -2.8741073950921321e-03 -2.9979113110926020e-03 0.0000000000000000e+00  -2.7746689205148281e-03 -2.8566302367917661e-03 0.0000000000000000e+00  -2.9257394356530428e-03 -3.0152021627491304e-03 0.0000000000000000e+00  -2.8168389599453119e-03 -2.9255060205829685e-03 0.0000000000000000e+00  -2.8190443359237972e-03 -2.9771277920645814e-03 0.0000000000000000e+00  -2.7691315995151122e-03 -2.9482838455233665e-03 0.0000000000000000e+00  -2.8069321014275307e-03 -2.7872771812008468e-03 0.0000000000000000e+00  -2.7530140847267133e-03 -2.9487577057617435e-03 0.0000000000000000e+00  -2.7585951110393383e-03 -2.8435756278776167e-03 0.0000000000000000e+00  -2.9587218088791200e-03 -2.8851192520373339e-03 0.0000000000000000e+00  -2.9245189150339918e-03 -2.8044467646811595e-03 0.0000000000000000e+00  -2.8898017644484282e-03 -2.8101289182641408e-03 0.0000000000000000e+00  -2.9207766080902677e-03 -3.0172723975166768e-03 0.0000000000000000e+00  -2.8679438192006925e-03 -3.0165409790304130e-03 0.0000000000000000e+00  -2.8226039287570647e-03 -2.7871067401529729e-03 0.0000000000000000e+00  -2.7667792935486498e