<?xml version="1.0"?>
<VTKFile type="UnstructuredGrid"  version="0.1"  >
<UnstructuredGrid>
<Piece  NumberOfPoints="1380" NumberOfCells="2630">
<Points>
<DataArray  type="Float64"  NumberOfComponents="3"  format="ascii">-1 -1 0  1 -1 0  1 1 0  -1 1 0  0 -1 0  1 0 0  0 1 0  -1 0 0  0 0 0  -1 -0.5 0  -0.5 -1 0  -0.5 1 0  -1 0.5 0  1 -0.5 0  0.5 -1 0  1 0.5 0  0.5 1 0  0.4166666666666666 -0.4166666666666667 0  -0.4166666666666667 0.4166666666666667 0  -0.25 -0.5 0  0.5 0.25 0  -0.4861111111111112 -0.06944444444444445 0  0.0732758620689655 0.507183908045977 0  -0.625 -0.625 0  0.625 0.625 0  0.7380952380952381 -0.25 0  -0.7099116161616161 0.2105429292929293 0  -0.25 0.7380952380952381 0  0.105392156862745 -0.6348039215686275 0  0.6770833333333334 -0.6770833333333333 0  -0.6770833333333334 0.6770833333333334 0  0.3472222222222222 -0.06944444444444446 0  -0.7264957264957265 -0.3044871794871795 0  0.3141940982507127 0.7297313660835709 0  0.02049587951122483 -0.3227479397556124 0  -0.2690972222222223 0.1475694444444444 0  0.3859500089908372 -0.7274430156831472 0  -0.2228477945123298 -0.1761765495248019 0  0.2182539682539683 0.1884920634920635 0  0.75 0.375 0  -0.145442219440968 -0.7602211097204841 0  0.7088913690476191 0.0427827380952381 0  -0.75 -1 0  -1 -0.75 0  1 0.75 0  0.75 1 0  -0.7439982703698937 -0.04614153195464455 0  -0.4609235096577606 -0.3356498099556895 0  0.4063134471431929 0.4895621842856023 0  0.25 -1 0  -0.25 -1 0  -0.75 1 0  0.75 -1 0  -1 -0.25 0  -1 0.25 0  1 -0.25 0  -0.25 1 0  1 -0.75 0  -1 0.75 0  0.25 1 0  1 0.25 0  -0.4041423272138783 -0.7597141090712928 0  0.06500839607911253 0.7578103030529481 0  -0.1572801182352047 0.3838997021864289 0  -0.6528005242053915 0.4409494757946086 0  -0.4930160984848485 0.1544744318181818 0  -0.4732142857142858 0.7752976190476191 0  0.6398809523809523 -0.4538690476190476 0  0.5166054117396399 -0.2161233620965164 0  -0.002273787244753427 0.2232363985975174 0  0.1500564496765022 -0.1524955293952667 0  0.2016720420046758 -0.4410343282803009 0  -0.08495178036419618 0.6274139771124571 0  -0.8367311471133162 0.3642591720794645 0  -0.8333333333333334 -0.625 0  -0.594323836800685 -0.8231079456002283 0  -0.4466957714776065 -0.5349126855671806 0  0.8125 0.5625 0  0.78125 0.78125 0  0.5091392650016769 0.7947130883338923 0  0.125 -0.8382681931833136 0  -0.8184523809523809 -0.8184523809523809 0  -0.07781530426104531 -0.5819319697006881 0  0.5085055196703295 0.04967610411902112 0  0.2918471072074933 -0.276017202318847 0  0.5120763537765269 -0.5898771553229597 0  0.625 -0.8585349462365591 0  0.8158532234335381 -0.8158532234335381 0  -0.5198088446315396 0.5739411553684605 0  -0.8585349462365591 0.625 0  -0.8150493805516597 0.8156205699829586 0  0.8585349462365591 -0.625 0  -0.2688268348649726 0.5439331383603209 0  0.8242100426758139 -0.4436043596336612 0  0.5833756314287952 0.4479378157143976 0  0.8690476190476191 -0.125 0  -0.125 0.8690476190476191 0  -0.8692745600729823 0.125 0  0.8696725120759167 0.125 0  -0.625 0.8711516477451908 0  0.2339522463269718 0.3879558377955778 0  0.2453709502295031 0.5655822922838026 0  0.1730610651637797 0.02021709580868947 0  0.3245402594056757 -0.5644672020485209 0  -0.7291666666666666 -0.4816595441595442 0  -1 -0.375 0  -0.5811140848639904 -0.2127276307675001 0  0.673332592838314 0.2158348143233718 0  0.375 1 0  -0.5714768890989919 0.2985103444040069 0  -1 -0.125 0  -0.8453692574786325 -0.1875 0  -0.3144549134065865 -0.02408675326008025 0  -0.2898414972096258 -0.3336092734780093 0  -0.1075052092206287 -0.4224330421314983 0  -0.05043970703604117 -0.1652278959397459 0  0.6459672950297897 -0.1113415301525317 0  0.4645210271029513 0.6398480556579343 0  0.3512863754411909 0.0937979496253573 0  -0.6063160985568274 0.03891469652249891 0  -0.3428819444444445 0.8690476190476191 0  0.625 1 0  -0.1602164796159982 0.02697860906625157 0  0.04648110064133829 -0.4808416424239687 0  1 0.875 0  -0.3836102479201657 0.6484936449177356 0  -0.3776011723096096 0.263078478984336 0  -0.6024978259969829 -0.3949628096211138 0  0.125 1 0  0.2010781308272777 0.8456221018461906 0  0.2822509696388829 -0.845902544691141 0  -0.3285533674953515 -0.6289773550938936 0  0.3461306793221754 0.278777492464833 0  0.4737475672408696 -0.8508448959534423 0  0.2384632828836344 -0.7029523187242811 0  -0.004777287059791593 0.3759269695907358 0  -0.8499735021850066 -0.3912320205328522 0  0.1222536293721587 0.2963971539625205 0  -0.3769456520999688 -0.203572526805711 0  -0.2749617205755651 -0.8464290792698902 0  0.004805888512766143 -0.747174355248311 0  -0.125 -1 0  -0.06001061822252458 -0.8724007765244854 0  0.875 0.4375 0  0.854421179608893 0.271342359217786 0  0.875 1 0  -0.1499861095763589 0.2358309656934888 0  0.3381943639137225 0.8663061796405532 0  -0.7853090110442228 0.4998412775277108 0  0.7398165998560814 -0.5535192694951373 0  0.1580042122341573 -0.3100246140259917 0  -0.7291666666666667 -0.7142857142857142 0  -0.375 -1 0  0.6483368386154684 0.8514905990110488 0  -0.1295370103291928 -0.2826118305021242 0  0.07458201853700455 0.1123894386563915 0  0.6146465857036327 -0.3161203659316075 0  0.5551898493894731 -0.740296118159085 0  0.375 -1 0  0.482702798370208 -0.084133350091034 0  0.87890625 0.68359375 0  -0.05917195534525846 0.4971092425697621 0  0.1260710309213975 0.6343750312956699 0  0.8690476190476191 -0.3077066815262848 0  -0.2912010232560567 0.3668168386732139 0  -0.875 1 0  -1 0.875 0  1 -0.875 0  0.875 -1 0  -0.8689564281364567 -0.006189266075306407 0  -0.7449425635110547 0.08458938160051771 0  -0.7150266761936593 -0.1739444581417552 0  -0.5260034831318311 -0.711099823962112 0  -0.4724626808827322 -0.871722230709409 0  0.4734436795977052 0.377714794132168 0  -0.875 -1 0  -1 -0.875 0  0.6927189078571988 0.5156567235715964 0  -0.3742497615796874 -0.4296005251260107 0  -0.1969436423297711 -0.6387157229772615 0  -0.6179496409766825 -0.08933356056510935 0  -0.424405057115988 0.04452428810878029 0  -0.08479048335844169 0.1279607007132633 0  0.003830300099055113 0.8712085230656206 0  0.8748778838820267 -1.379218479898026e-05 0  -0.375 1 0  -0.625 1 0  1 0.125 0  -0.125 1 0  1 -0.375 0  1 -0.125 0  1 -0.625 0  0.625 -1 0  0.125 -1 0  -0.625 -1 0  -1 -0.625 0  -1 0.125 0  -1 0.375 0  -1 0.625 0  1 0.375 0  1 0.625 0  0.6325660748712082 0.3335187599557389 0  -0.06420945895056573 0.7549874027425891 0  -0.8769015540914771 0.2478802253893416 0  0.871875 0.871875 0  -0.6868091492840067 0.3270978624973681 0  -0.5363597469565949 0.412994850055505 0  -0.6803734992638302 0.5574295000651103 0  -0.7076253581162534 -0.8803439094224437 0  -0.8778089002295137 -0.5106896447504627 0  -0.3860184984222981 0.530566778071246 0  0.6109900617121508 0.1128453077697081 0  0.3896945134930274 -0.1915382873255086 0  0.7605656944697778 -0.06822134873122943 0  0.3576151269893478 0.5948388411612135 0  -0.5689902680792265 -0.5143596830118065 0  0.6262446286847614 -0.5735657901943212 0  0.2030558252325225 -0.5625263842513452 0  0.6123273142928579 0.7407533260723429 0  0.4016460890123554 -0.3042863223111857 0  -0.59039693199147 0.7578418819188018 0  0.7276932493917544 -0.3705808024528924 0  0.5222536818742854 -0.4713886230400014 0  -0.5101986527137737 0.8848365765607674 0  0.510560172809238 0.5356013299918891 0  -0.3603569195756083 0.75823710606415 0  0.1967279277813232 0.728226870058472 0  -0.6086880986371127 0.1545624071548516 0  -0.38105366729386 0.1511189987807864 0  -0.2944659463671584 -0.7359061804869591 0  0.5060729154966499 -0.3475227845833823 0  -0.09281616240412746 -0.06197858250969457 0  0.7649739583333334 0.6673177083333334 0  0.7628906249999999 0.890234375 0  -0.2666864184909611 0.2585504071132311 0  0.3635064892129658 0.3878003602709461 0  -0.2339409722222222 0.8901937905844155 0  -0.1718792125974916 -0.8957733325456778 0  0.1001768566329531 0.4023510017391879 0  0.3120260172693757 -0.4540546875576884 0  0.7804062804433681 0.1896628610854537 0  0.4087715451998049 0.187961780041608 0  -0.1584963477271457 0.5451611892421655 0  -0.8926817849258324 0.463022006336401 0  0.2338091473445219 -0.07576267331277289 0  0.08171112182813692 -0.2349087687359925 0  0.04635385178956847 -0.1044635073718474 0  -0.4377391632114205 -0.6448874471423088 0  -0.1907678351227189 0.6480215912813945 0  0.300605946475244 0.4741444604171038 0  -0.2145033720757486 -0.06751709909419711 0  0.6069191921170397 -0.005492331448357812 0  0.0214718770761248 0.6032397936031719 0  0.5476675683364878 0.8992752415326501 0  0.4387475014316537 0.9093708953002239 0  -0.4932997685306436 -0.4381009159993523 0  0.2515197695339056 -0.1791673369138964 0  -0.7291666666666667 -0.6088789682539681 0  -0.9166666666666667 -0.6875 0  0.620579540363709 -0.2122431523583302 0  -0.484950136419973 0.6719440339397442 0  0.2857044415400258 0.0137589173127316 0  -0.8945708364098356 -0.288306105327986 0  0.4043102720140535 0.7842914560451557 0  0.04123256238752064 -0.9026968245801402 0  0.2003676884403109 -0.9091888601740487 0  0.1068775558538842 -0.7373377130403223 0  -0.4804566783514427 -0.1763307203045643 0  0.108286342087769 -0.3993789328997278 0  -0.191883080105361 -0.3640821726430649 0  -0.07025064492006244 0.2984876656890053 0  -0.7039324641409584 0.788312126296613 0  -0.7311286585775438 0.8932502354831682 0  0.5171409396884947 0.1503852691889257 0  0.4229392823658633 -0.003216522184234835 0  -0.5621736087218259 -0.919558629836806 0  -0.626474064879544 -0.7266572613636506 0  0.2446828746617422 0.2867616783302419 0  0.1759429608742923 0.4776611759306416 0  -0.3468240303741654 -0.5260416435617549 0  -0.7465808808425306 0.4069574477998361 0  -0.7819962170660292 0.2802441065650652 0  -0.3742623214119594 -0.8547800509641984 0  0.1014498009713561 0.8506721983266377 0  0.4285217620918213 -0.5230190595570253 0  0.4091738370487775 -0.6256346204225141 0  0.78125 0.46875 0  0.90625 0.53125 0  -0.4791801348852565 0.2553992655702126 0  0.7843318610782772 -0.7086046956885941 0  0.8909728264971901 -0.7355183796514634 0  0.7041908166528879 -0.7830649143180282 0  0.7311821352
[...]
<PointData  Vectors="f_22"> 
<DataArray  type="Float64"  Name="f_22"  NumberOfComponents="3" format="ascii">-1.7508616609875186e-02 -1.6317703766727160e-02 0.0000000000000000e+00  -1.7508616609875186e-02 -1.6317703766727160e-02 0.0000000000000000e+00  -1.7508616609875186e-02 -1.6317703766727160e-02 0.0000000000000000e+00  -1.7508616609875186e-02 -1.6317703766727160e-02 0.0000000000000000e+00  -1.7423168206847840e-02 -2.1246479950911282e-02 0.0000000000000000e+00  -2.2193217742136718e-02 -1.6231420831430688e-02 0.0000000000000000e+00  -1.7423168206847840e-02 -2.1246479950911282e-02 0.0000000000000000e+00  -2.2193217742136718e-02 -1.6231420831430688e-02 0.0000000000000000e+00  -2.2281824761054395e-02 -2.1336301116192165e-02 0.0000000000000000e+00  -9.2002815840003267e-03 -1.6270293000200824e-02 0.0000000000000000e+00  -1.7461532285723152e-02 -8.1682683447419687e-03 0.0000000000000000e+00  -1.7461532285723152e-02 -8.1682683447419687e-03 0.0000000000000000e+00  -3.0508827397146249e-02 -1.6269034395436834e-02 0.0000000000000000e+00  -9.2002815840003267e-03 -1.6270293000200824e-02 0.0000000000000000e+00  -1.7461237341604367e-02 -2.9403688841979862e-02 0.0000000000000000e+00  -3.0508827397146249e-02 -1.6269034395436834e-02 0.0000000000000000e+00  -1.7461237341604367e-02 -2.9403688841979862e-02 0.0000000000000000e+00  -1.0148904168633517e-02 -2.9653324524593214e-02 0.0000000000000000e+00  -3.0725939200544776e-02 -9.1479017231207611e-03 0.0000000000000000e+00  -9.2314079705989281e-03 -1.3080834030990796e-02 0.0000000000000000e+00  -2.9102361540141578e-02 -2.9428919513683111e-02 0.0000000000000000e+00  -1.9890973884287084e-02 -8.3002358569536586e-03 0.0000000000000000e+00  -3.0457819122651060e-02 -2.3661380422267606e-02 0.0000000000000000e+00  -9.1460940682039967e-03 -8.0645914740872567e-03 0.0000000000000000e+00  -2.8822078059840415e-02 -2.7672191746097998e-02 0.0000000000000000e+00  -1.3967768057890260e-02 -2.4808195121046740e-02 0.0000000000000000e+00  -2.8244808696803281e-02 -8.8123650090235605e-03 0.0000000000000000e+00  -2.5988088829485570e-02 -1.3012178631695881e-02 0.0000000000000000e+00  -9.1306967518391957e-03 -2.4584895202239821e-02 0.0000000000000000e+00  -9.5279425535018253e-03 -2.6444947943117660e-02 0.0000000000000000e+00  -2.7610169141524990e-02 -8.4251109243472615e-03 0.0000000000000000e+00  -1.9892388441064345e-02 -2.9370856738529624e-02 0.0000000000000000e+00  -1.2530357949285647e-02 -9.1225938773902386e-03 0.0000000000000000e+00  -2.6285555836162228e-02 -2.9037350680916729e-02 0.0000000000000000e+00  -1.2091315603532989e-02 -2.1994650501786076e-02 0.0000000000000000e+00  -2.6766443372019107e-02 -1.2520181458171679e-02 0.0000000000000000e+00  -1.0197210092907822e-02 -2.9571213385626103e-02 0.0000000000000000e+00  -1.6325075754460426e-02 -1.3905068479313411e-02 0.0000000000000000e+00  -2.7820576880102667e-02 -2.7489655637118002e-02 0.0000000000000000e+00  -3.0624404761320712e-02 -2.4533503887764898e-02 0.0000000000000000e+00  -1.0813769700301878e-02 -1.6335291107049128e-02 0.0000000000000000e+00  -2.3625229032125918e-02 -2.5641983870487481e-02 0.0000000000000000e+00  -1.7493068222509761e-02 -9.5410861727390234e-03 0.0000000000000000e+00  -1.0670607238458930e-02 -1.6302192701786764e-02 0.0000000000000000e+00  -2.5725922150108941e-02 -1.6301378938425554e-02 0.0000000000000000e+00  -1.7493422319915904e-02 -2.4542139768989099e-02 0.0000000000000000e+00  -2.0651128764579221e-02 -9.3737761849143359e-03 0.0000000000000000e+00  -1.1805365134273351e-02 -8.5956688861015557e-03 0.0000000000000000e+00  -3.0617687918931168e-02 -2.9710947886156438e-02 0.0000000000000000e+00  -1.7433621209120155e-02 -2.8037978505329873e-02 0.0000000000000000e+00  -1.7433844663827847e-02 -1.3016905390498788e-02 0.0000000000000000e+00  -1.7493068222509761e-02 -9.5410861727390234e-03 0.0000000000000000e+00  -1.7493422319915904e-02 -2.4542139768989099e-02 0.0000000000000000e+00  -1.3972669787074088e-02 -1.6242673185896596e-02 0.0000000000000000e+00  -2.9043885040740593e-02 -1.6241501767580976e-02 0.0000000000000000e+00  -1.3972669787074088e-02 -1.6242673185896596e-02 0.0000000000000000e+00  -1.7433844663827847e-02 -1.3016905390498788e-02 0.0000000000000000e+00  -1.0670607238458930e-02 -1.6302192701786764e-02 0.0000000000000000e+00  -2.5725922150108941e-02 -1.6301378938425554e-02 0.0000000000000000e+00  -1.7433621209120155e-02 -2.8037978505329873e-02 0.0000000000000000e+00  -2.9043885040740593e-02 -1.6241501767580976e-02 0.0000000000000000e+00  -1.0841300768446098e-02 -9.4070692779210062e-03 0.0000000000000000e+00  -2.5446438719241717e-02 -2.3371003014375030e-02 0.0000000000000000e+00  -3.0652348200482009e-02 -1.5959692344023203e-02 0.0000000000000000e+00  -3.0724760863010670e-02 -8.1661352409873756e-03 0.0000000000000000e+00  -2.6921435495681885e-02 -8.2088859269099541e-03 0.0000000000000000e+00  -2.4902637300344050e-02 -8.3887634413478181e-03 0.0000000000000000e+00  -9.6196798267512984e-03 -2.7273749366932276e-02 0.0000000000000000e+00  -1.4998487198313197e-02 -2.9224665766909515e-02 0.0000000000000000e+00  -2.8582285334423019e-02 -2.1252180879167474e-02 0.0000000000000000e+00  -1.7087016994352545e-02 -2.5867872500580612e-02 0.0000000000000000e+00  -9.8058310554448962e-03 -2.7079921621484700e-02 0.0000000000000000e+00  -2.8705397799534158e-02 -1.8382988188827616e-02 0.0000000000000000e+00  -3.0508861597369041e-02 -1.1345590068027026e-02 0.0000000000000000e+00  -9.1370673222071694e-03 -1.1345471148774858e-02 0.0000000000000000e+00  -1.2245506139265458e-02 -7.9342711672553794e-03 0.0000000000000000e+00  -9.0466097556435952e-03 -8.7765497748562363e-03 0.0000000000000000e+00  -2.9865898842381125e-02 -2.2623080705638621e-02 0.0000000000000000e+00  -2.4805552805196557e-02 -2.3617222501166980e-02 0.0000000000000000e+00  -2.4374916902175726e-02 -2.9350879576073827e-02 0.0000000000000000e+00  -1.2539281169716024e-02 -2.5125456715004855e-02 0.0000000000000000e+00  -1.2143606031951555e-02 -1.0992017367263882e-02 0.0000000000000000e+00  -8.9443194719994734e-03 -1.8650732577955152e-02 0.0000000000000000e+00  -2.3874596487672744e-02 -2.9333964894364420e-02 0.0000000000000000e+00  -1.3270471346599744e-02 -2.8731338295892826e-02 0.0000000000000000e+00  -8.9173232008156467e-03 -2.9255317335273652e-02 0.0000000000000000e+00  -1.3111782150384157e-02 -2.7626452477697482e-02 0.0000000000000000e+00  -1.2049643879670663e-02 -2.2494025661221561e-02 0.0000000000000000e+00  -2.9623804864479533e-02 -7.9949831278626048e-03 0.0000000000000000e+00  -2.8776781836326034e-02 -1.1946971868663749e-02 0.0000000000000000e+00  -2.3693273295189481e-02 -1.0879417505404327e-02 0.0000000000000000e+00  -9.0990098956170249e-03 -2.1065398141920794e-02 0.0000000000000000e+00  -3.0038194294260315e-02 -1.2485117555637214e-02 0.0000000000000000e+00  -9.7604694626584922e-03 -2.2173860061592859e-02 0.0000000000000000e+00  -3.0789204747717337e-02 -2.8425273330084287e-02 0.0000000000000000e+00  -1.7935676399103127e-02 -2.0682148025118738e-02 0.0000000000000000e+00  -2.1878383961322617e-02 -1.6994994461598155e-02 0.0000000000000000e+00  -2.6093066811360369e-02 -1.2199008888821528e-02 0.0000000000000000e+00  -2.6103601822507205e-02 -2.0679245226073565e-02 0.0000000000000000e+00  -2.1839150768210341e-02 -8.0186345519912966e-03 0.0000000000000000e+00  -3.0711597331563947e-02 -2.7801565287851191e-02 0.0000000000000000e+00  -2.9814891901077282e-02 -2.8004038100444429e-02 0.0000000000000000e+00  -2.2949393573441647e-02 -2.6461260063393048e-02 0.0000000000000000e+00  -8.8982362123295848e-03 -2.9108334045072744e-02 0.0000000000000000e+00  -9.3864851306296494e-03 -9.1867521157269240e-03 0.0000000000000000e+00  -1.0905126547284521e-02 -1.6254892686312899e-02 0.0000000000000000e+00  -1.5141542602525527e-02 -7.8986971016329968e-03 0.0000000000000000e+00  -2.8399638731214427e-02 -2.6570935924212988e-02 0.0000000000000000e+00  -1.7445897547956345e-02 -2.9540524125578147e-02 0.0000000000000000e+00  -2.9821311853114242e-02 -7.8374649111498558e-03 0.0000000000000000e+00  -1.7936105863563714e-02 -1.6234183841966947e-02 0.0000000000000000e+00  -1.5894103122788040e-02 -1.1592463790999361e-02 0.0000000000000000e+00  -2.1456057281069123e-02 -1.1329708916240846e-02 0.0000000000000000e+00  -1.1855582548843320e-02 -1.1980054337674503e-02 0.0000000000000000e+00  -1.0114102467991505e-02 -1.7659136626569084e-02 0.0000000000000000e+00  -1.6680147488409170e-02 -1.9627174897064021e-02 0.0000000000000000e+00  -1.8417086189887733e-02 -2.7158240315075525e-02 0.0000000000000000e+00  -2.8513917287593938e-02 -2.9648568605838917e-02 0.0000000000000000e+00  -2.5260976815774223e-02 -2.9421001678820009e-02 0.0000000000000000e+00  -2.3507165546879521e-02 -7.9144962893339527e-03 0.0000000000000000e+00  -2.1880330692884059e-02 -1.0590125689428465e-02 0.0000000000000000e+00  -1.7477703184983911e-02 -2.7647983118214439e-02 0.0000000000000000e+00  -2.3169382811108436e-02 -1.5898272317840516e-02 0.0000000000000000e+00  -9.3601383831539015e-03 -2.2813097102249956e-02 0.0000000000000000e+00  -2.1759296201466681e-02 -1.6312771355480472e-02 0.0000000000000000e+00  -2.8242984996451167e-02 -9.7297122059667729e-03 0.0000000000000000e+00  -2.9292932986412397e-02 -9.8712812488469630e-03 0.0000000000000000e+00  -1.0581592144553210e-02 -7.9583752560625880e-03 0.0000000000000000e+00  -1.7425839130206885e-02 -2.5124797628034646e-02 0.0000000000000000e+00  -2.2691417786410015e-02 -2.7060236928729737e-02 0.0000000000000000e+00  -1.2736924110822837e-02 -2.8563776293572006e-02 0.0000000000000000e+00  -9.1513582861774811e-03 -1.0981328110078183e-02 0.0000000000000000e+00  -2.9603396039552681e-02 -2.9389905067909058e-02 0.0000000000000000e+00  -1.2883158798737741e-02 -2.9551706746285770e-02 0.0000000000000000e+00  -9.8270669722095878e-03 -2.7816490513803555e-02 0.0000000000000000e+00  -3.0629344858013947e-02 -2.1153306593337060e-02 0.0000000000000000e+00  -1.0618768130997384e-02 -1.1740470024471731e-02 0.0000000000000000e+00  -2.9859795142654622e-02 -2.5125783661111883e-02 0.0000000000000000e+00  -1.5446316391837869e-02 -9.9340852228040170e-03 0.0000000000000000e+00  -1.2792076248056637e-02 -1.2328549795475961e-02 0.0000000000000000e+00  -1.0551076881021314e-02 -2.1424372530330197e-02 0.0000000000000000e+00  -1.7425858110101587e-02 -1.6995542773186417e-02 0.0000000000000000e+00  -1.3464403776595605e-02 -1.9220496246012752e-02 0.0000000000000000e+00  -3.0776748712096961e-02 -2.0535985498284968e-02 0.0000000000000000e+00  -2.9433254526789517e-02 -2.1210638220209577e-02 0.0000000000000000e+00  -1.7504366504114917e-02 -2.0562073298218124e-02 0.0000000000000000e+00  -2.8821226875301090e-02 -1.6220179458179815e-02 0.0000000000000000e+00  -2.2015103984813340e-02 -2.9278017087407543e-02 0.0000000000000000e+00  -3.0481262823324633e-02 -1.0161675860490337e-02 0.0000000000000000e+00  -8.9277918859596676e-03 -2.4770168485965062e-02 0.0000000000000000e+00  -1.2390177025115098e-02 -2.6055830983396769e-02 0.0000000000000000e+00  -1.0087060001652182e-02 -9.1994426398023469e-03 0.0000000000000000e+00  -1.7446179905215940e-02 -9.9174872801207122e-03 0.0000000000000000e+00  -2.2543634319309693e-02 -2.7173432327558856e-02 0.0000000000000000e+00  -1.3132192250522274e-02 -1.6924854119699431e-02 0.0000000000000000e+00  -2.5817889332354169e-02 -2.3732016877713095e-02 0.0000000000000000e+00  -1.2196125862585627e-02 -2.7786644089471811e-02 0.0000000000000000e+00  -1.0429734429758716e-02 -2.8780487269551725e-02 0.0000000000000000e+00  -1.7445897547956345e-02 -2.9540524125578147e-02 0.0000000000000000e+00  -1.9369491543125960e-02 -2.9511242274064823e-02 0.0000000000000000e+00  -2.7514803004918823e-02 -2.0426752637587375e-02 0.0000000000000000e+00  -3.0519364742454383e-02 -1.9286119272837507e-02 0.0000000000000000e+00  -2.8592155841234777e-02 -2.5195547364478401e-02 0.0000000000000000e+00  -1.2403736971085844e-02 -2.0682398388303321e-02 0.0000000000000000e+00  -3.0539349447914376e-02 -1.1888413064166409e-02 0.0000000000000000e+00  -1.7504429665395851e-02 -1.2449880848142178e-02 0.0000000000000000e+00  -2.1759296201466681e-02 -1.6312771355480472e-02 0.0000000000000000e+00  -1.3617061304560257e-02 -1.6313529105562968e-02 0.0000000000000000e+00  -1.7504366504114917e-02 -2.0562073298218124e-02 0.0000000000000000e+00  -2.1991523724209015e-02 -1.2197913643423160e-02 0.0000000000000000e+00  -2.4920742607060200e-02 -9.3754058292250426e-03 0.0000000000000000e+00  -1.6348733533772412e-02 -8.9297201282846489e-03 0.0000000000000000e+00  -1.0031851832064991e-02 -8.0365993466386919e-03 0.0000000000000000e+00  -1.3499103603772397e-02 -8.4374070985871966e-03 0.0000000000000000e+00  -3.0662480350903722e-02 -2.9611208404249356e-02 0.0000000000000000e+00  -1.7504429665395851e-02 -1.2449880848142178e-02 0.0000000000000000e+00  -1.3617061304560257e-02 -1.6313529105562968e-02 0.0000000000000000e+00  -3.0410636008190554e-02 -2.6119621562630663e-02 0.0000000000000000e+00  -1.0025170367329731e-02 -9.9929520966153020e-03 0.0000000000000000e+00  -9.1993434853634513e-03 -1.4677610014647837e-02 0.0000000000000000e+00  -1.9193214713090878e-02 -7.9786264076175395e-03 0.0000000000000000e+00  -2.3710611963651877e-02 -9.0625497316715441e-03 0.0000000000000000e+00  -2.6252090221515513e-02 -1.8445891556903380e-02 0.0000000000000000e+00  -2.1812543681527009e-02 -2.1379973058519925e-02 0.0000000000000000e+00  -2.2197263439679718e-02 -2.0491914468221246e-02 0.0000000000000000e+00  -1.7446179905215940e-02 -9.9174872801207122e-03 0.0000000000000000e+00  -1.7477656460350412e-02 -8.0363618166813255e-03 0.0000000000000000e+00  -2.6093575248303847e-02 -1.6233944007897037e-02 0.0000000000000000e+00  -1.7425858110101587e-02 -1.6995542773186417e-02 0.0000000000000000e+00  -1.0905126547284521e-02 -1.6254892686312899e-02 0.0000000000000000e+00  -1.7936105863563714e-02 -1.6234183841966947e-02 0.0000000000000000e+00  -9.1188550771970529e-03 -1.6286559708891431e-02 0.0000000000000000e+00  -1.7477703184983911e-02 -2.7647983118214439e-02 0.0000000000000000e+00  -1.7425839130206885e-02 -2.5124797628034646e-02 0.0000000000000000e+00  -1.7477656460350412e-02 -8.0363618166813255e-03 0.0000000000000000e+00  -9.1188550771970529e-03 -1.6286559708891431e-02 0.0000000000000000e+00  -2.6093575248303847e-02 -1.6233944007897037e-02 0.0000000000000000e+00  -3.0594874228089399e-02 -1.6253783272974436e-02 0.0000000000000000e+00  -2.8798371077054092e-02 -1.6285957671981242e-02 0.0000000000000000e+00  -3.0594874228089399e-02 -1.6253783272974436e-02 0.0000000000000000e+00  -2.8798371077054092e-02 -1.6285957671981242e-02 0.0000000000000000e+00  -3.0298037746976269e-02 -2.7502448456245294e-02 0.0000000000000000e+00  -2.5514570644301120e-02 -1.9080880469681531e-02 0.0000000000000000e+00  -2.8998157045614762e-02 -1.2410348083274582e-02 0.0000000000000000e+00  -2.1868940134903262e-02 -2.0671030752912444e-02 0.0000000000000000e+00  -3.0169492703005472e-02 -8.5087735311887985e-03 0.0000000000000000e+00  -3.0715571532663022e-02 -7.9114550395905266e-03 0.0000000000000000e+00  -2.9869973226446547e-02 -8.4469968532139231e-03 0.0000000000000000e+00  -1.3765102411341776e-02 -8.8688158052298103e-03 0.0000000000000000e+00  -9.1441901658242328e-03 -1.2505310673691995e-02 0.0000000000000000e+00  -3.0183898837575787e-02 -9.6858306285578042e-03 0.0000000000000000e+00  -2.5790883488160107e-02 -2.7903866901799402e-02 0.0000000000000000e+00  -1.5785136055402559e-02 -2.9611972716311302e-02 0.0000000000000000e+00  -1.9883032267978010e-02 -2.4165256877959854e-02 0.0000000000000000e+00  -2.9366452898553611e-02 -2.9471604111462001e-02 0.0000000000000000e+00  -9.1476174273983999e-03 -7.9230262208476003e-03 0.0000000000000000e+00  -8.9041773334166564e-03 -2.7563569629111089e-02 0.0000000000000000e+00  -8.9077985274691289e-03 -2.7098076220276598e-02 0.0000000000000000e+00  -2.6000037931912634e-02 -2.7916248872577421e-02 0.0000000000000000e+00  -1.2508158018720921e-02 -2.9636830496476616e-02 0.0000000000000000e+00  -2.5434684845020171e-02 -7.8729103302441917e-03 0.0000000000000000e+00  -1.0974829058707834e-02 -2.5099680002380862e-02 0.0000000000000000e+00  -9.4189858118229504e-03 -2.9153697890128831e-02 0.0000000000000000e+00  -2.1363194224371870e-02 -8.0807206211172301e-03 0.0000000000000000e+00  -3.0213234545468527e-02 -2.9351473842262246e-02 0.0000000000000000e+00  -2.5405703162735060e-02 -1.0202338946525859e-02 0.0000000000000000e+00  -2.6312248997283599e-02 -2.6977386221056592e-02 0.0000000000000000e+00  -2.6911095052132059e-02 -7.9094199954645467e-03 0.0000000000000000e+00  -2.6846944170320804e-02 -9.8157659431397024e-03 0.0000000000000000e+00  -1.0396715604488455e-02 -1.1820074360867688e-02 0.0000000000000000e+00  -1.1467196128339728e-02 -2.9310374509432139e-02 0.0000000000000000e+00  -2.0175522573157235e-02 -1.8178256762861212e-02 0.0000000000000000e+00  -2.7908958394697057e-02 -2.4110799395512968e-02 0.0000000000000000e+00  -2.1242981409189760e-02 -2.4171181979130284e-02 0.0000000000000000e+00  -2.9227544413214471e-02 -1.2575419006122357e-02 0.0000000000000000e+00  -3.0715199385794621e-02 -2.9522992202028649e-02 0.0000000000000000e+00  -2.1161885806501315e-02 -1.3485426146775406e-02 0.0000000000000000e+00  -1.4142342110682517e-02 -1.5445953101886633e-02 0.0000000000000000e+00  -3.0753279477760503e-02 -2.4483249959691571e-02 0.0000000000000000e+00  -9.6260124225354213e-03 -2.8973816821294351e-02 0.0000000000000000e+00  -2.7794623786823163e-02 -2.3594223776454093e-02 0.0000000000000000e+00  -2.7799477455175331e-02 -2.9707690098030752e-02 0.0000000000000000e+00  -3.0034316548517827e-02 -1.5899665053452500e-02 0.0000000000000000e+00  -3.0695052441217886e-02 -1.2877191344646174e-02 0.0000000000000000e+00  -1.9687269312114192e-02 -2.7786798385360981e-02 0.0000000000000000e+00  -1.4475755733290453e-02 -2.3932926703308929e-02 0.0000000000000000e+00  -1.8716962671360565e-02 -2.2846366199851191e-02 0.0000000000000000e+00  -9.2750961487412190e-03 -8.8921494633324352e-03 0.0000000000000000e+00  -2.8262676954024697e-02 -1.4835803342550727e-02 0.0000000000000000e+00  -3.0699291286690272e-02 -2.8891065686417548e-02 0.0000000000000000e+00  -1.9982244489699569e-02 -1.4158888685446375e-02 0.0000000000000000e+00  -2.2043639552631403e-02 -2.7963701920923196e-02 0.0000000000000000e+00  -2.9178721565108093e-02 -2.1996090827005762e-02 0.0000000000000000e+00  -2.0916074259794096e-02 -2.8927765216816517e-02 0.0000000000000000e+00  -2.0557248924826740e-02 -2.9691234516955888e-02 0.0000000000000000e+00  -9.9045489073098323e-03 -8.2672417991349976e-03 0.0000000000000000e+00  -1.6199764155978780e-02 -2.8104134655177467e-02 0.0000000000000000e+00  -9.0616011772263957e-03 -9.1965628264579352e-03 0.0000000000000000e+00  -9.7089311754185777e-03 -1.3649860356580468e-02 0.0000000000000000e+00  -1.5108126833956789e-02 -2.7677889517872697e-02 0.0000000000000000e+00  -2.7713094597561629e-02 -8.2645713560556087e-03 0.0000000000000000e+00  -2.2727461300343154e-02 -2.8676226376406180e-02 0.0000000000000000e+00  -1.2924549702496993e-02 -1.2949588743628169e-02 0.0000000000000000e+00  -2.4689214506012115e-02 -2.9684094301511765e-02 0.0000000000000000e+00  -1.4327725782239098e-02 -2.2599757615941470e-02 0.0000000000000000e+00  -1.4519626799057078e-02 -2.7025431924995416e-02 0.0000000000000000e+00  -1.0367863742219832e-02 -2.4618155692626140e-02 0.0000000000000000e+00  -1.6303861651103757e-02 -8.3681391120354314e-03 0.0000000000000000e+00  -1.0470454744550764e-02 -2.4696508950013244e-02 0.0000000000000000e+00  -1.1180816667734057e-02 -1.4868690767464325e-02 0.0000000000000000e+00  -2.9871462204373315e-02 -1.8930108593853117e-02 0.0000000000000000e+00  -2.4533741200002946e-02 -8.7747256272194419e-03 0.0000000000000000e+00  -2.1108899392983438e-02 -9.2012425552930651e-03 0.0000000000000000e+00  -2.6843957954136959e-02 -2.9266070972728056e-02 0.0000000000000000e+00  -2.2144750584786141e-02 -2.9701387848820010e-02 0.0000000000000000e+00  -1.4900366385397946e-02 -7.9036564222559787e-03 0.0000000000000000e+00  -1.0278087610123391e