<?xml version="1.0"?>
<VTKFile type="UnstructuredGrid"  version="0.1"  >
<UnstructuredGrid>
<Piece  NumberOfPoints="1380" NumberOfCells="2630">
<Points>
<DataArray  type="Float64"  NumberOfComponents="3"  format="ascii">-1 -1 0  1 -1 0  1 1 0  -1 1 0  0 -1 0  1 0 0  0 1 0  -1 0 0  0 0 0  -1 -0.5 0  -0.5 -1 0  -0.5 1 0  -1 0.5 0  1 -0.5 0  0.5 -1 0  1 0.5 0  0.5 1 0  0.4166666666666666 -0.4166666666666667 0  -0.4166666666666667 0.4166666666666667 0  -0.25 -0.5 0  0.5 0.25 0  -0.4861111111111112 -0.06944444444444445 0  0.0732758620689655 0.507183908045977 0  -0.625 -0.625 0  0.625 0.625 0  0.7380952380952381 -0.25 0  -0.7099116161616161 0.2105429292929293 0  -0.25 0.7380952380952381 0  0.105392156862745 -0.6348039215686275 0  0.6770833333333334 -0.6770833333333333 0  -0.6770833333333334 0.6770833333333334 0  0.3472222222222222 -0.06944444444444446 0  -0.7264957264957265 -0.3044871794871795 0  0.3141940982507127 0.7297313660835709 0  0.02049587951122483 -0.3227479397556124 0  -0.2690972222222223 0.1475694444444444 0  0.3859500089908372 -0.7274430156831472 0  -0.2228477945123298 -0.1761765495248019 0  0.2182539682539683 0.1884920634920635 0  0.75 0.375 0  -0.145442219440968 -0.7602211097204841 0  0.7088913690476191 0.0427827380952381 0  -0.75 -1 0  -1 -0.75 0  1 0.75 0  0.75 1 0  -0.7439982703698937 -0.04614153195464455 0  -0.4609235096577606 -0.3356498099556895 0  0.4063134471431929 0.4895621842856023 0  0.25 -1 0  -0.25 -1 0  -0.75 1 0  0.75 -1 0  -1 -0.25 0  -1 0.25 0  1 -0.25 0  -0.25 1 0  1 -0.75 0  -1 0.75 0  0.25 1 0  1 0.25 0  -0.4041423272138783 -0.7597141090712928 0  0.06500839607911253 0.7578103030529481 0  -0.1572801182352047 0.3838997021864289 0  -0.6528005242053915 0.4409494757946086 0  -0.4930160984848485 0.1544744318181818 0  -0.4732142857142858 0.7752976190476191 0  0.6398809523809523 -0.4538690476190476 0  0.5166054117396399 -0.2161233620965164 0  -0.002273787244753427 0.2232363985975174 0  0.1500564496765022 -0.1524955293952667 0  0.2016720420046758 -0.4410343282803009 0  -0.08495178036419618 0.6274139771124571 0  -0.8367311471133162 0.3642591720794645 0  -0.8333333333333334 -0.625 0  -0.594323836800685 -0.8231079456002283 0  -0.4466957714776065 -0.5349126855671806 0  0.8125 0.5625 0  0.78125 0.78125 0  0.5091392650016769 0.7947130883338923 0  0.125 -0.8382681931833136 0  -0.8184523809523809 -0.8184523809523809 0  -0.07781530426104531 -0.5819319697006881 0  0.5085055196703295 0.04967610411902112 0  0.2918471072074933 -0.276017202318847 0  0.5120763537765269 -0.5898771553229597 0  0.625 -0.8585349462365591 0  0.8158532234335381 -0.8158532234335381 0  -0.5198088446315396 0.5739411553684605 0  -0.8585349462365591 0.625 0  -0.8150493805516597 0.8156205699829586 0  0.8585349462365591 -0.625 0  -0.2688268348649726 0.5439331383603209 0  0.8242100426758139 -0.4436043596336612 0  0.5833756314287952 0.4479378157143976 0  0.8690476190476191 -0.125 0  -0.125 0.8690476190476191 0  -0.8692745600729823 0.125 0  0.8696725120759167 0.125 0  -0.625 0.8711516477451908 0  0.2339522463269718 0.3879558377955778 0  0.2453709502295031 0.5655822922838026 0  0.1730610651637797 0.02021709580868947 0  0.3245402594056757 -0.5644672020485209 0  -0.7291666666666666 -0.4816595441595442 0  -1 -0.375 0  -0.5811140848639904 -0.2127276307675001 0  0.673332592838314 0.2158348143233718 0  0.375 1 0  -0.5714768890989919 0.2985103444040069 0  -1 -0.125 0  -0.8453692574786325 -0.1875 0  -0.3144549134065865 -0.02408675326008025 0  -0.2898414972096258 -0.3336092734780093 0  -0.1075052092206287 -0.4224330421314983 0  -0.05043970703604117 -0.1652278959397459 0  0.6459672950297897 -0.1113415301525317 0  0.4645210271029513 0.6398480556579343 0  0.3512863754411909 0.0937979496253573 0  -0.6063160985568274 0.03891469652249891 0  -0.3428819444444445 0.8690476190476191 0  0.625 1 0  -0.1602164796159982 0.02697860906625157 0  0.04648110064133829 -0.4808416424239687 0  1 0.875 0  -0.3836102479201657 0.6484936449177356 0  -0.3776011723096096 0.263078478984336 0  -0.6024978259969829 -0.3949628096211138 0  0.125 1 0  0.2010781308272777 0.8456221018461906 0  0.2822509696388829 -0.845902544691141 0  -0.3285533674953515 -0.6289773550938936 0  0.3461306793221754 0.278777492464833 0  0.4737475672408696 -0.8508448959534423 0  0.2384632828836344 -0.7029523187242811 0  -0.004777287059791593 0.3759269695907358 0  -0.8499735021850066 -0.3912320205328522 0  0.1222536293721587 0.2963971539625205 0  -0.3769456520999688 -0.203572526805711 0  -0.2749617205755651 -0.8464290792698902 0  0.004805888512766143 -0.747174355248311 0  -0.125 -1 0  -0.06001061822252458 -0.8724007765244854 0  0.875 0.4375 0  0.854421179608893 0.271342359217786 0  0.875 1 0  -0.1499861095763589 0.2358309656934888 0  0.3381943639137225 0.8663061796405532 0  -0.7853090110442228 0.4998412775277108 0  0.7398165998560814 -0.5535192694951373 0  0.1580042122341573 -0.3100246140259917 0  -0.7291666666666667 -0.7142857142857142 0  -0.375 -1 0  0.6483368386154684 0.8514905990110488 0  -0.1295370103291928 -0.2826118305021242 0  0.07458201853700455 0.1123894386563915 0  0.6146465857036327 -0.3161203659316075 0  0.5551898493894731 -0.740296118159085 0  0.375 -1 0  0.482702798370208 -0.084133350091034 0  0.87890625 0.68359375 0  -0.05917195534525846 0.4971092425697621 0  0.1260710309213975 0.6343750312956699 0  0.8690476190476191 -0.3077066815262848 0  -0.2912010232560567 0.3668168386732139 0  -0.875 1 0  -1 0.875 0  1 -0.875 0  0.875 -1 0  -0.8689564281364567 -0.006189266075306407 0  -0.7449425635110547 0.08458938160051771 0  -0.7150266761936593 -0.1739444581417552 0  -0.5260034831318311 -0.711099823962112 0  -0.4724626808827322 -0.871722230709409 0  0.4734436795977052 0.377714794132168 0  -0.875 -1 0  -1 -0.875 0  0.6927189078571988 0.5156567235715964 0  -0.3742497615796874 -0.4296005251260107 0  -0.1969436423297711 -0.6387157229772615 0  -0.6179496409766825 -0.08933356056510935 0  -0.424405057115988 0.04452428810878029 0  -0.08479048335844169 0.1279607007132633 0  0.003830300099055113 0.8712085230656206 0  0.8748778838820267 -1.379218479898026e-05 0  -0.375 1 0  -0.625 1 0  1 0.125 0  -0.125 1 0  1 -0.375 0  1 -0.125 0  1 -0.625 0  0.625 -1 0  0.125 -1 0  -0.625 -1 0  -1 -0.625 0  -1 0.125 0  -1 0.375 0  -1 0.625 0  1 0.375 0  1 0.625 0  0.6325660748712082 0.3335187599557389 0  -0.06420945895056573 0.7549874027425891 0  -0.8769015540914771 0.2478802253893416 0  0.871875 0.871875 0  -0.6868091492840067 0.3270978624973681 0  -0.5363597469565949 0.412994850055505 0  -0.6803734992638302 0.5574295000651103 0  -0.7076253581162534 -0.8803439094224437 0  -0.8778089002295137 -0.5106896447504627 0  -0.3860184984222981 0.530566778071246 0  0.6109900617121508 0.1128453077697081 0  0.3896945134930274 -0.1915382873255086 0  0.7605656944697778 -0.06822134873122943 0  0.3576151269893478 0.5948388411612135 0  -0.5689902680792265 -0.5143596830118065 0  0.6262446286847614 -0.5735657901943212 0  0.2030558252325225 -0.5625263842513452 0  0.6123273142928579 0.7407533260723429 0  0.4016460890123554 -0.3042863223111857 0  -0.59039693199147 0.7578418819188018 0  0.7276932493917544 -0.3705808024528924 0  0.5222536818742854 -0.4713886230400014 0  -0.5101986527137737 0.8848365765607674 0  0.510560172809238 0.5356013299918891 0  -0.3603569195756083 0.75823710606415 0  0.1967279277813232 0.728226870058472 0  -0.6086880986371127 0.1545624071548516 0  -0.38105366729386 0.1511189987807864 0  -0.2944659463671584 -0.7359061804869591 0  0.5060729154966499 -0.3475227845833823 0  -0.09281616240412746 -0.06197858250969457 0  0.7649739583333334 0.6673177083333334 0  0.7628906249999999 0.890234375 0  -0.2666864184909611 0.2585504071132311 0  0.3635064892129658 0.3878003602709461 0  -0.2339409722222222 0.8901937905844155 0  -0.1718792125974916 -0.8957733325456778 0  0.1001768566329531 0.4023510017391879 0  0.3120260172693757 -0.4540546875576884 0  0.7804062804433681 0.1896628610854537 0  0.4087715451998049 0.187961780041608 0  -0.1584963477271457 0.5451611892421655 0  -0.8926817849258324 0.463022006336401 0  0.2338091473445219 -0.07576267331277289 0  0.08171112182813692 -0.2349087687359925 0  0.04635385178956847 -0.1044635073718474 0  -0.4377391632114205 -0.6448874471423088 0  -0.1907678351227189 0.6480215912813945 0  0.300605946475244 0.4741444604171038 0  -0.2145033720757486 -0.06751709909419711 0  0.6069191921170397 -0.005492331448357812 0  0.0214718770761248 0.6032397936031719 0  0.5476675683364878 0.8992752415326501 0  0.4387475014316537 0.9093708953002239 0  -0.4932997685306436 -0.4381009159993523 0  0.2515197695339056 -0.1791673369138964 0  -0.7291666666666667 -0.6088789682539681 0  -0.9166666666666667 -0.6875 0  0.620579540363709 -0.2122431523583302 0  -0.484950136419973 0.6719440339397442 0  0.2857044415400258 0.0137589173127316 0  -0.8945708364098356 -0.288306105327986 0  0.4043102720140535 0.7842914560451557 0  0.04123256238752064 -0.9026968245801402 0  0.2003676884403109 -0.9091888601740487 0  0.1068775558538842 -0.7373377130403223 0  -0.4804566783514427 -0.1763307203045643 0  0.108286342087769 -0.3993789328997278 0  -0.191883080105361 -0.3640821726430649 0  -0.07025064492006244 0.2984876656890053 0  -0.7039324641409584 0.788312126296613 0  -0.7311286585775438 0.8932502354831682 0  0.5171409396884947 0.1503852691889257 0  0.4229392823658633 -0.003216522184234835 0  -0.5621736087218259 -0.919558629836806 0  -0.626474064879544 -0.7266572613636506 0  0.2446828746617422 0.2867616783302419 0  0.1759429608742923 0.4776611759306416 0  -0.3468240303741654 -0.5260416435617549 0  -0.7465808808425306 0.4069574477998361 0  -0.7819962170660292 0.2802441065650652 0  -0.3742623214119594 -0.8547800509641984 0  0.1014498009713561 0.8506721983266377 0  0.4285217620918213 -0.5230190595570253 0  0.4091738370487775 -0.6256346204225141 0  0.78125 0.46875 0  0.90625 0.53125 0  -0.4791801348852565 0.2553992655702126 0  0.7843318610782772 -0.7086046956885941 0  0.8909728264971901 -0.7355183796514634 0  0.7041908166528879 -0.7830649143180282 0  0.7311821352
[...]
<PointData  Vectors="f_22"> 
<DataArray  type="Float64"  Name="f_22"  NumberOfComponents="3" format="ascii">-2.6393343091500251e-03 -2.7026141060202875e-03 0.0000000000000000e+00  -2.6393343091500251e-03 -2.7026141060202875e-03 0.0000000000000000e+00  -2.6393343091500251e-03 -2.7026141060202875e-03 0.0000000000000000e+00  -2.6393343091500251e-03 -2.7026141060202875e-03 0.0000000000000000e+00  -2.6348835204267683e-03 -3.1015792036883797e-03 0.0000000000000000e+00  -3.0810356191312677e-03 -2.6967794002209760e-03 0.0000000000000000e+00  -2.6348835204267683e-03 -3.1015792036883797e-03 0.0000000000000000e+00  -3.0810356191312677e-03 -2.6967794002209760e-03 0.0000000000000000e+00  -3.0852936827589000e-03 -3.1073254810274620e-03 0.0000000000000000e+00  2.4825655334189014e-03 -2.6993618416778779e-03 0.0000000000000000e+00  -2.6369481263397113e-03 2.4399143940572934e-03 0.0000000000000000e+00  -2.6369481263397113e-03 2.4399143940572934e-03 0.0000000000000000e+00  -8.2029782397951140e-03 -2.6992380680787489e-03 0.0000000000000000e+00  2.4825655334189014e-03 -2.6993618416778779e-03 0.0000000000000000e+00  -2.6367222605299164e-03 -8.2443096681405325e-03 0.0000000000000000e+00  -8.2029782397951140e-03 -2.6992380680787489e-03 0.0000000000000000e+00  -2.6367222605299164e-03 -8.2443096681405325e-03 0.0000000000000000e+00  2.2450280154008274e-03 -8.1129582196062880e-03 0.0000000000000000e+00  -8.0761819751469562e-03 2.2071867503543415e-03 0.0000000000000000e+00  2.4804765531947714e-03 7.3073898335187105e-04 0.0000000000000000e+00  -6.7977154443551180e-03 -8.2457338840094974e-03 0.0000000000000000e+00  -1.9223982954329202e-03 2.4254492788895899e-03 0.0000000000000000e+00  -8.1970648178915900e-03 -4.3188922689394700e-03 0.0000000000000000e+00  2.1582430851530125e-03 2.1082911505948924e-03 0.0000000000000000e+00  -7.7135324212873318e-03 -7.7623179559857831e-03 0.0000000000000000e+00  7.6220936442637625e-04 -6.6775320573705613e-03 0.0000000000000000e+00  -6.3159419814834495e-03 1.4464307590586159e-03 0.0000000000000000e+00  -6.6220148694129625e-03 7.3438292292454820e-04 0.0000000000000000e+00  2.1038694196313249e-03 -4.8286502795886676e-03 0.0000000000000000e+00  1.7962568621240063e-03 -7.3304827935406925e-03 0.0000000000000000e+00  -7.2775778778667076e-03 1.7421608913954119e-03 0.0000000000000000e+00  -1.9223933148155860e-03 -7.7350825045055180e-03 0.0000000000000000e+00  1.3766859921061762e-03 1.2753190568172608e-03 0.0000000000000000e+00  -6.7245066795989317e-03 -7.4716021364457826e-03 0.0000000000000000e+00  1.5565791099984580e-03 -3.4494117109976734e-03 0.0000000000000000e+00  -5.4493831253077689e-03 9.5960301054494985e-04 0.0000000000000000e+00  1.3247293359893921e-03 -7.9740485028018324e-03 0.0000000000000000e+00  -2.4382131665099194e-04 3.8243448326021203e-04 0.0000000000000000e+00  -6.0296922650778023e-03 -6.4439491253129762e-03 0.0000000000000000e+00  -7.8828324357819984e-03 -6.5372368616170469e-03 0.0000000000000000e+00  9.5746612720108975e-04 -7.2586598757559879e-04 0.0000000000000000e+00  -3.7962666586771518e-03 -7.0094570527224646e-03 0.0000000000000000e+00  -2.6384519280145636e-03 1.0160999925998575e-03 0.0000000000000000e+00  1.0736162448387980e-03 -2.7015351455985698e-03 0.0000000000000000e+00  -6.4817569997144310e-03 -2.7013854459551436e-03 0.0000000000000000e+00  -2.6384608318067515e-03 -6.5382209624043914e-03 0.0000000000000000e+00  -2.3079391663063053e-03 1.0879440124047415e-03 0.0000000000000000e+00  1.6735625041156561e-03 2.3729168176816391e-03 0.0000000000000000e+00  -8.2100237224632285e-03 -8.0753055074599712e-03 0.0000000000000000e+00  -2.6353815965136354e-03 -6.8208298724560098e-03 0.0000000000000000e+00  -2.6354197099696759e-03 7.3420213824265223e-04 0.0000000000000000e+00  -2.6384519280145636e-03 1.0160999925998575e-03 0.0000000000000000e+00  -2.6384608318067515e-03 -6.5382209624043914e-03 0.0000000000000000e+00  7.6164522379574824e-04 -2.6975790315384271e-03 0.0000000000000000e+00  -6.7942606714704607e-03 -2.6974644538957340e-03 0.0000000000000000e+00  7.6164522379574824e-04 -2.6975790315384271e-03 0.0000000000000000e+00  -2.6354197099696759e-03 7.3420213824265223e-04 0.0000000000000000e+00  1.0736162448387980e-03 -2.7015351455985698e-03 0.0000000000000000e+00  -6.4817569997144310e-03 -2.7013854459551436e-03 0.0000000000000000e+00  -2.6353815965136354e-03 -6.8208298724560098e-03 0.0000000000000000e+00  -6.7942606714704607e-03 -2.6974644538957340e-03 0.0000000000000000e+00  9.6128201156222420e-04 2.1387559121193388e-03 0.0000000000000000e+00  -6.3813940320197569e-03 -4.1822527498363640e-03 0.0000000000000000e+00  -7.9305586021807643e-03 -5.4717081872519846e-04 0.0000000000000000e+00  -8.1498966659873332e-03 1.9319905302298823e-03 0.0000000000000000e+00  -5.5488935782308088e-03 2.4351117384321412e-03 0.0000000000000000e+00  -6.1537403388762409e-03 2.4054888088284377e-03 0.0000000000000000e+00  2.3968879109536852e-03 -7.6479828692552253e-03 0.0000000000000000e+00  3.2281601980914740e-04 -8.2249091989350879e-03 0.0000000000000000e+00  -6.4795386548869190e-03 -3.0688032872867063e-03 0.0000000000000000e+00  -5.9661656832742018e-04 -5.5105652199626777e-03 0.0000000000000000e+00  2.3512617856398643e-03 -6.2275629367159607e-03 0.0000000000000000e+00  -7.6919468472679458e-03 -1.6872059493434957e-03 0.0000000000000000e+00  -7.8147977158290142e-03 -1.0170134815255738e-04 0.0000000000000000e+00  2.1590103255185937e-03 -5.8029076845873092e-05 0.0000000000000000e+00  1.4557070080602839e-04 2.2642235030698888e-03 0.0000000000000000e+00  2.4720263469272140e-03 2.3294310551962003e-03 0.0000000000000000e+00  -8.0586941057938961e-03 -5.7030892858289869e-03 0.0000000000000000e+00  -6.0795202644543245e-03 -6.1369635191439609e-03 0.0000000000000000e+00  -5.8954428327043819e-03 -8.2375785264732892e-03 0.0000000000000000e+00  -6.3527425658626378e-05 -5.1310852584056637e-03 0.0000000000000000e+00  2.0961750723573130e-04 1.4952806393809769e-04 0.0000000000000000e+00  2.3630816211458686e-03 -1.8055569937244814e-03 0.0000000000000000e+00  -3.9116717068559594e-03 -8.2371610747840954e-03 0.0000000000000000e+00  1.0698139237285207e-03 -7.2653165297596571e-03 0.0000000000000000e+00  2.3359587034593710e-03 -8.2306035555918099e-03 0.0000000000000000e+00  -3.6099849669456787e-04 -7.7600523850616492e-03 0.0000000000000000e+00  2.4730533752428697e-04 -5.6544920803110266e-03 0.0000000000000000e+00  -8.0050721436694498e-03 2.4441753961554659e-03 0.0000000000000000e+00  -7.7103354148116967e-03 -4.2228634844260519e-04 0.0000000000000000e+00  -5.5982063969638781e-03 1.9792428675633779e-04 0.0000000000000000e+00  2.1615621103083190e-03 -5.0155536243873585e-03 0.0000000000000000e+00  -8.1189768445705558e-03 9.5892537245424432e-04 0.0000000000000000e+00  2.3613411361210843e-03 -5.5300028260908346e-03 0.0000000000000000e+00  -8.1704476358868856e-03 -8.0113912857403703e-03 0.0000000000000000e+00  -1.0193558740654439e-03 -4.8497946882290503e-03 0.0000000000000000e+00  -4.7896125073604847e-03 -1.0420854237837057e-03 0.0000000000000000e+00  -5.1085787333626353e-03 -5.8077903306191954e-04 0.0000000000000000e+00  -5.1093696804733781e-03 -4.8408475938150133e-03 0.0000000000000000e+00  -4.7583110188592782e-03 2.1104613454026276e-03 0.0000000000000000e+00  -7.9545047097180528e-03 -6.6367010378739653e-03 0.0000000000000000e+00  -8.0458400060681376e-03 -6.7707049990721165e-03 0.0000000000000000e+00  -3.4240304128725150e-03 -5.8415304071100585e-03 0.0000000000000000e+00  2.4208341887657896e-03 -7.5572630542211925e-03 0.0000000000000000e+00  2.4587380177097120e-03 1.2459247881591198e-03 0.0000000000000000e+00  1.9914263802227549e-03 -2.6983213120581623e-03 0.0000000000000000e+00  2.7420061106780079e-04 2.3176729443952055e-03 0.0000000000000000e+00  -6.3860109098682217e-03 -7.3666801102949056e-03 0.0000000000000000e+00  -2.6359907951287471e-03 -7.9141058770340403e-03 0.0000000000000000e+00  -7.2975878210041201e-03 2.3530166164288835e-03 0.0000000000000000e+00  -1.0195551921717005e-03 -2.6968357060491101e-03 0.0000000000000000e+00  -7.6315938793111314e-05 -2.2737925335158881e-04 0.0000000000000000e+00  -2.6802908377219978e-03 1.4445692853782197e-03 0.0000000000000000e+00  1.6551409551871701e-03 1.1906973819617974e-03 0.0000000000000000e+00  2.2694672315096429e-03 -1.3245803709792962e-03 0.0000000000000000e+00  -4.0554053638245128e-04 -2.2616194143301131e-03 0.0000000000000000e+00  -1.2372141019631503e-03 -7.6006227957117070e-03 0.0000000000000000e+00  -7.6029708227872859e-03 -8.2353706099267260e-03 0.0000000000000000e+00  -4.6271322254326517e-03 -7.7647428388774994e-03 0.0000000000000000e+00  -3.7324302054193271e-03 2.2122976688129892e-03 0.0000000000000000e+00  -4.7896787288737117e-03 1.7082886289534322e-03 0.0000000000000000e+00  -2.6374951982463964e-03 -7.7611701486141205e-03 0.0000000000000000e+00  -3.5365662711073086e-03 -5.0514088249860116e-04 0.0000000000000000e+00  2.4596722053463953e-03 -3.8799419406717489e-03 0.0000000000000000e+00  -4.7005703116627141e-03 -2.7020780449601941e-03 0.0000000000000000e+00  -7.5285418354658204e-03 2.0164202002026332e-03 0.0000000000000000e+00  -6.9399303725487076e-03 1.9745221494618824e-03 0.0000000000000000e+00  2.1197790842414298e-03 2.2276856892289223e-03 0.0000000000000000e+00  -2.6350403860828592e-03 -5.1308184888968159e-03 0.0000000000000000e+00  -5.1528735513776368e-03 -6.2186090456105899e-03 0.0000000000000000e+00  -1.7365215388895231e-04 -7.1681067698274028e-03 0.0000000000000000e+00  2.1358272218616843e-03 1.5787693037333861e-03 0.0000000000000000e+00  -7.1090900403248721e-03 -7.7285511588422061e-03 0.0000000000000000e+00  -2.4635052249459804e-04 -8.2416349255738704e-03 0.0000000000000000e+00  1.5683265907989719e-03 -6.6863428994704101e-03 0.0000000000000000e+00  -7.8876988417026020e-03 -3.0256802882151759e-03 0.0000000000000000e+00  2.0984437036002763e-03 -2.9647213172059812e-04 0.0000000000000000e+00  -7.2818770615184327e-03 -5.0939890812980526e-03 0.0000000000000000e+00  1.4731566464493403e-04 1.9673955955544294e-03 0.0000000000000000e+00  -1.8386610844199343e-04 1.0290570511130737e-03 0.0000000000000000e+00  1.1088632638425841e-03 -3.1832337933148931e-03 0.0000000000000000e+00  -2.6349750076207403e-03 -1.0421454009334969e-03 0.0000000000000000e+00  -5.6828562147380685e-04 -2.0972276034815569e-03 0.0000000000000000e+00  -8.1444607945580002e-03 -4.7597048376628141e-03 0.0000000000000000e+00  -7.0290647539165817e-03 -5.0784316754364459e-03 0.0000000000000000e+00  -2.6389965910910101e-03 -4.7618617768035399e-03 0.0000000000000000e+00  -6.6314775663656794e-03 -6.5891133457548492e-04 0.0000000000000000e+00  -4.8352322590084953e-03 -7.6669156254183576e-03 0.0000000000000000e+00  -8.2012864296059224e-03 5.9381029313340184e-04 0.0000000000000000e+00  2.4463087960420143e-03 -6.6580995545737027e-03 0.0000000000000000e+00  1.4333239732653208e-03 -5.6253324259466150e-03 0.0000000000000000e+00  1.4531027499938265e-03 1.2449676615672411e-03 0.0000000000000000e+00  -2.6361139352183340e-03 1.9569029195887567e-03 0.0000000000000000e+00  -5.0659798019854155e-03 -7.5855755278943140e-03 0.0000000000000000e+00  1.1415244875816266e-03 -9.7595213479857127e-04 0.0000000000000000e+00  -4.9191412546163377e-03 -4.3420627346961900e-03 0.0000000000000000e+00  1.4959979047928507e-03 -7.8275664009254207e-03 0.0000000000000000e+00  1.1861383816778783e-03 -8.1278969439567000e-03 0.0000000000000000e+00  -2.6359907951287471e-03 -7.9141058770340403e-03 0.0000000000000000e+00  -1.6793056491190654e-03 -8.2469592512569006e-03 0.0000000000000000e+00  -7.2188295612467951e-03 -4.6997343163220273e-03 0.0000000000000000e+00  -8.2041491465329689e-03 -2.1137221004232671e-03 0.0000000000000000e+00  -7.6425346406828742e-03 -5.1497079758305456e-03 0.0000000000000000e+00  1.4123252211265828e-03 -4.8500156395629834e-03 0.0000000000000000e+00  -7.8313715275321622e-03 1.2083387707246332e-03 0.0000000000000000e+00  -2.6391180016867668e-03 -6.7367005820928604e-04 0.0000000000000000e+00  -4.7005703116627141e-03 -2.7020780449601941e-03 0.0000000000000000e+00  -6.1173798288821407e-04 -2.7023303856742991e-03 0.0000000000000000e+00  -2.6389965910910101e-03 -4.7618617768035399e-03 0.0000000000000000e+00  -2.9774025018684800e-03 -5.7642103047207520e-04 0.0000000000000000e+00  -4.4769239765543728e-03 1.0780703028801292e-03 0.0000000000000000e+00  -2.7421863563049437e-04 1.3936749090915186e-03 0.0000000000000000e+00  1.4848382972886172e-03 2.4367116311530238e-03 0.0000000000000000e+00  -5.6117974256280213e-04 2.4018439386503604e-03 0.0000000000000000e+00  -7.8996949144383138e-03 -8.2446111210167164e-03 0.0000000000000000e+00  -2.6391180016867668e-03 -6.7367005820928604e-04 0.0000000000000000e+00  -6.1173798288821407e-04 -2.7023303856742991e-03 0.0000000000000000e+00  -8.1878536665627322e-03 -7.1812717527754786e-03 0.0000000000000000e+00  2.3007893139637527e-03 1.9484844497748078e-03 0.0000000000000000e+00  2.0764662339383547e-03 3.1153277700257034e-05 0.0000000000000000e+00  -1.5947261580474938e-03 2.1510345271832697e-03 0.0000000000000000e+00  -3.8263391296397744e-03 2.2419670992876455e-03 0.0000000000000000e+00  -5.1577845332118196e-03 -1.6936780521032428e-03 0.0000000000000000e+00  -4.7559700803486548e-03 -3.1661859925331513e-03 0.0000000000000000e+00  -3.0809757384402388e-03 -4.7585648386905162e-03 0.0000000000000000e+00  -2.6361139352183340e-03 1.9569029195887567e-03 0.0000000000000000e+00  -2.6376186379086404e-03 2.1095059087291933e-03 0.0000000000000000e+00  -5.1087473612996979e-03 -2.6970278707103262e-03 0.0000000000000000e+00  -2.6349750076207403e-03 -1.0421454009334969e-03 0.0000000000000000e+00  1.9914263802227549e-03 -2.6983213120581623e-03 0.0000000000000000e+00  -1.0195551921717005e-03 -2.6968357060491101e-03 0.0000000000000000e+00  2.1602083638083552e-03 -2.7003613942618273e-03 0.0000000000000000e+00  -2.6374951982463964e-03 -7.7611701486141205e-03 0.0000000000000000e+00  -2.6350403860828592e-03 -5.1308184888968159e-03 0.0000000000000000e+00  -2.6376186379086404e-03 2.1095059087291933e-03 0.0000000000000000e+00  2.1602083638083552e-03 -2.7003613942618273e-03 0.0000000000000000e+00  -5.1087473612996979e-03 -2.6970278707103262e-03 0.0000000000000000e+00  -7.8808458267813457e-03 -2.6983102507031234e-03 0.0000000000000000e+00  -7.7116911104728944e-03 -2.7004318240388199e-03 0.0000000000000000e+00  -7.8808458267813457e-03 -2.6983102507031234e-03 0.0000000000000000e+00  -7.7116911104728944e-03 -2.7004318240388199e-03 0.0000000000000000e+00  -7.6019286756018791e-03 -7.7068780986443942e-03 0.0000000000000000e+00  -6.4161023907297913e-03 -2.0280187211590959e-03 0.0000000000000000e+00  -6.7696666212275257e-03 -6.9701197144920123e-04 0.0000000000000000e+00  -4.7501997689671305e-03 -4.8109676240852524e-03 0.0000000000000000e+00  -7.5469829755109210e-03 1.6607784892787303e-03 0.0000000000000000e+00  -8.0622171604291266e-03 2.4303246207745210e-03 0.0000000000000000e+00  -8.0738474094778443e-03 1.7153660057721855e-03 0.0000000000000000e+00  -6.9351168271771565e-04 1.4634802757495502e-03 0.0000000000000000e+00  2.4858722026274748e-03 -7.1477408108284871e-04 0.0000000000000000e+00  -8.1540441519523145e-03 2.0320646406440527e-03 0.0000000000000000e+00  -4.9245397194863875e-03 -7.8533453060580481e-03 0.0000000000000000e+00  -1.9111205060579611e-05 -7.9952363508293146e-03 0.0000000000000000e+00  -1.9399162332311996e-03 -6.4016628369646736e-03 0.0000000000000000e+00  -7.9041066225784672e-03 -7.8076914865682981e-03 0.0000000000000000e+00  2.4843004753313624e-03 2.3562465741490944e-03 0.0000000000000000e+00  2.3939734328941361e-03 -7.7492853907821218e-03 0.0000000000000000e+00  2.4253440325817098e-03 -6.2447803598781769e-03 0.0000000000000000e+00  -6.5954839737037280e-03 -7.8471574862851706e-03 0.0000000000000000e+00  1.3769587825241665e-03 -8.0517918377007031e-03 0.0000000000000000e+00  -6.3800924136574481e-03 2.2835033998314454e-03 0.0000000000000000e+00  1.9612001699167245e-03 -6.7991518552335270e-03 0.0000000000000000e+00  2.4436155276113519e-03 -8.2147956736177870e-03 0.0000000000000000e+00  -4.5409419820947924e-03 2.4442928305525302e-03 0.0000000000000000e+00  -8.1473102859975013e-03 -8.2366120911566369e-03 0.0000000000000000e+00  -6.3741601782289908e-03 1.8500916605947802e-03 0.0000000000000000e+00  -6.7409520959463929e-03 -6.1620370443172482e-03 0.0000000000000000e+00  -5.5494258391223499e-03 2.2011764090999644e-03 0.0000000000000000e+00  -5.5006744155733037e-03 1.9973010750208744e-03 0.0000000000000000e+00  1.2306550059674127e-03 1.2426424435385557e-03 0.0000000000000000e+00  1.7805995971519521e-03 -8.2374287983767100e-03 0.0000000000000000e+00  -2.0474419583368254e-03 -1.5630470746830132e-03 0.0000000000000000e+00  -7.3720953115976847e-03 -6.3501956367526891e-03 0.0000000000000000e+00  -4.4583391558838115e-03 -6.3770471107081825e-03 0.0000000000000000e+00  -6.8911582923571503e-03 9.3224415939328485e-04 0.0000000000000000e+00  -7.9540845348426339e-03 -7.8470253937862854e-03 0.0000000000000000e+00  -4.4541944913017708e-03 5.3225463802470958e-04 0.0000000000000000e+00  -9.2956862663375213e-04 -3.2722545737649025e-04 0.0000000000000000e+00  -8.0222526461415939e-03 -4.7499951294570882e-03 0.0000000000000000e+00  2.3968601343361674e-03 -7.4510729872374363e-03 0.0000000000000000e+00  -6.0428824185884984e-03 -6.1447737880926867e-03 0.0000000000000000e+00  -6.0224350649625107e-03 -8.0853858364788467e-03 0.0000000000000000e+00  -8.1159460835097622e-03 -5.2760138921912573e-04 0.0000000000000000e+00  -8.1917054774136456e-03 -9.4236976748309235e-04 0.0000000000000000e+00  -1.8186911503246842e-03 -6.6347706243953166e-03 0.0000000000000000e+00  5.6823393214883438e-04 -4.4562355299812492e-03 0.0000000000000000e+00  -1.3512912111541362e-03 -3.8803513123620596e-03 0.0000000000000000e+00  2.0340357696659130e-03 2.2970831776018617e-03 0.0000000000000000e+00  -7.5330323168303964e-03 -5.4153377455835584e-05 0.0000000000000000e+00  -8.2057059883965406e-03 -7.3505548476668764e-03 0.0000000000000000e+00  -1.9555813414102777e-03 2.7074643876235955e-04 0.0000000000000000e+00  -2.9905031613683317e-03 -7.8778982311157389e-03 0.0000000000000000e+00  -7.8526338113484376e-03 -3.4637438789334308e-03 0.0000000000000000e+00  -4.3117836410731490e-03 -8.1553314464088145e-03 0.0000000000000000e+00  -4.1470706755892305e-03 -8.1844786230061417e-03 0.0000000000000000e+00  2.3359677302173388e-03 2.4323279045600213e-03 0.0000000000000000e+00  -1.9824713075338840e-04 -6.8410289196556657e-03 0.0000000000000000e+00  2.2451579837231301e-03 1.2452108336601380e-03 0.0000000000000000e+00  1.7040215201621029e-03 -1.3261638319190957e-03 0.0000000000000000e+00  2.7084071515198820e-04 -7.7883472018199940e-03 0.0000000000000000e+00  -7.3244642031166521e-03 2.4261770022495441e-03 0.0000000000000000e+00  -3.3155412047206844e-03 -7.2068046623426207e-03 0.0000000000000000e+00  1.2070161765386676e-03 -9.7254188179075223e-04 0.0000000000000000e+00  -6.0375566509832642e-03 -8.0652760514178246e-03 0.0000000000000000e+00  -1.0373534317257790e-03 -3.7899314214272233e-03 0.0000000000000000e+00  -1.1400863476434308e-03 -6.2084101055135581e-03 0.0000000000000000e+00  1.2184404839290799e-03 -4.8514028376844508e-03 0.0000000000000000e+00  -2.4098576051860161e-04 2.4161469010829648e-03 0.0000000000000000e+00  2.1486553407245109e-03 -4.8759318955085900e-03 0.0000000000000000e+00  1.9083052499469114e-03 -4.2221281862048697e-05 0.0000000000000000e+00  -7.3003392021883714e-03 -1.9318237784489906e-03 0.0000000000000000e+00  -5.9805326116405891e-03 1.5012945784118822e-03 0.0000000000000000e+00  -4.4079208171597861e-03 1.2254584472115441e-03 0.0000000000000000e+00  -5.4914255740603343e-03 -8.2264192755941799e-03 0.0000000000000000e+00  -3.0299057038277537e-03 -8.1376836468878971e-03 0.0000000000000000e+00  -1.3096314248250253e-03 2.3765110877577355e-03 0.0000000000000000e+00  1.3271170379773065e-03 2.0996311973001179e-03 0.0000000000000000e+00  -7.1891853898974354e-03 -6.7639280180516216e-03 0.0000000000000000e+00  -8.2069404771750957e-03 -5.88053631