<?xml version="1.0"?>
<VTKFile type="UnstructuredGrid"  version="0.1"  >
<UnstructuredGrid>
<Piece  NumberOfPoints="1380" NumberOfCells="2630">
<Points>
<DataArray  type="Float64"  NumberOfComponents="3"  format="ascii">-1 -1 0  1 -1 0  1 1 0  -1 1 0  0 -1 0  1 0 0  0 1 0  -1 0 0  0 0 0  -1 -0.5 0  -0.5 -1 0  -0.5 1 0  -1 0.5 0  1 -0.5 0  0.5 -1 0  1 0.5 0  0.5 1 0  0.4166666666666666 -0.4166666666666667 0  -0.4166666666666667 0.4166666666666667 0  -0.25 -0.5 0  0.5 0.25 0  -0.4861111111111112 -0.06944444444444445 0  0.0732758620689655 0.507183908045977 0  -0.625 -0.625 0  0.625 0.625 0  0.7380952380952381 -0.25 0  -0.7099116161616161 0.2105429292929293 0  -0.25 0.7380952380952381 0  0.105392156862745 -0.6348039215686275 0  0.6770833333333334 -0.6770833333333333 0  -0.6770833333333334 0.6770833333333334 0  0.3472222222222222 -0.06944444444444446 0  -0.7264957264957265 -0.3044871794871795 0  0.3141940982507127 0.7297313660835709 0  0.02049587951122483 -0.3227479397556124 0  -0.2690972222222223 0.1475694444444444 0  0.3859500089908372 -0.7274430156831472 0  -0.2228477945123298 -0.1761765495248019 0  0.2182539682539683 0.1884920634920635 0  0.75 0.375 0  -0.145442219440968 -0.7602211097204841 0  0.7088913690476191 0.0427827380952381 0  -0.75 -1 0  -1 -0.75 0  1 0.75 0  0.75 1 0  -0.7439982703698937 -0.04614153195464455 0  -0.4609235096577606 -0.3356498099556895 0  0.4063134471431929 0.4895621842856023 0  0.25 -1 0  -0.25 -1 0  -0.75 1 0  0.75 -1 0  -1 -0.25 0  -1 0.25 0  1 -0.25 0  -0.25 1 0  1 -0.75 0  -1 0.75 0  0.25 1 0  1 0.25 0  -0.4041423272138783 -0.7597141090712928 0  0.06500839607911253 0.7578103030529481 0  -0.1572801182352047 0.3838997021864289 0  -0.6528005242053915 0.4409494757946086 0  -0.4930160984848485 0.1544744318181818 0  -0.4732142857142858 0.7752976190476191 0  0.6398809523809523 -0.4538690476190476 0  0.5166054117396399 -0.2161233620965164 0  -0.002273787244753427 0.2232363985975174 0  0.1500564496765022 -0.1524955293952667 0  0.2016720420046758 -0.4410343282803009 0  -0.08495178036419618 0.6274139771124571 0  -0.8367311471133162 0.3642591720794645 0  -0.8333333333333334 -0.625 0  -0.594323836800685 -0.8231079456002283 0  -0.4466957714776065 -0.5349126855671806 0  0.8125 0.5625 0  0.78125 0.78125 0  0.5091392650016769 0.7947130883338923 0  0.125 -0.8382681931833136 0  -0.8184523809523809 -0.8184523809523809 0  -0.07781530426104531 -0.5819319697006881 0  0.5085055196703295 0.04967610411902112 0  0.2918471072074933 -0.276017202318847 0  0.5120763537765269 -0.5898771553229597 0  0.625 -0.8585349462365591 0  0.8158532234335381 -0.8158532234335381 0  -0.5198088446315396 0.5739411553684605 0  -0.8585349462365591 0.625 0  -0.8150493805516597 0.8156205699829586 0  0.8585349462365591 -0.625 0  -0.2688268348649726 0.5439331383603209 0  0.8242100426758139 -0.4436043596336612 0  0.5833756314287952 0.4479378157143976 0  0.8690476190476191 -0.125 0  -0.125 0.8690476190476191 0  -0.8692745600729823 0.125 0  0.8696725120759167 0.125 0  -0.625 0.8711516477451908 0  0.2339522463269718 0.3879558377955778 0  0.2453709502295031 0.5655822922838026 0  0.1730610651637797 0.02021709580868947 0  0.3245402594056757 -0.5644672020485209 0  -0.7291666666666666 -0.4816595441595442 0  -1 -0.375 0  -0.5811140848639904 -0.2127276307675001 0  0.673332592838314 0.2158348143233718 0  0.375 1 0  -0.5714768890989919 0.2985103444040069 0  -1 -0.125 0  -0.8453692574786325 -0.1875 0  -0.3144549134065865 -0.02408675326008025 0  -0.2898414972096258 -0.3336092734780093 0  -0.1075052092206287 -0.4224330421314983 0  -0.05043970703604117 -0.1652278959397459 0  0.6459672950297897 -0.1113415301525317 0  0.4645210271029513 0.6398480556579343 0  0.3512863754411909 0.0937979496253573 0  -0.6063160985568274 0.03891469652249891 0  -0.3428819444444445 0.8690476190476191 0  0.625 1 0  -0.1602164796159982 0.02697860906625157 0  0.04648110064133829 -0.4808416424239687 0  1 0.875 0  -0.3836102479201657 0.6484936449177356 0  -0.3776011723096096 0.263078478984336 0  -0.6024978259969829 -0.3949628096211138 0  0.125 1 0  0.2010781308272777 0.8456221018461906 0  0.2822509696388829 -0.845902544691141 0  -0.3285533674953515 -0.6289773550938936 0  0.3461306793221754 0.278777492464833 0  0.4737475672408696 -0.8508448959534423 0  0.2384632828836344 -0.7029523187242811 0  -0.004777287059791593 0.3759269695907358 0  -0.8499735021850066 -0.3912320205328522 0  0.1222536293721587 0.2963971539625205 0  -0.3769456520999688 -0.203572526805711 0  -0.2749617205755651 -0.8464290792698902 0  0.004805888512766143 -0.747174355248311 0  -0.125 -1 0  -0.06001061822252458 -0.8724007765244854 0  0.875 0.4375 0  0.854421179608893 0.271342359217786 0  0.875 1 0  -0.1499861095763589 0.2358309656934888 0  0.3381943639137225 0.8663061796405532 0  -0.7853090110442228 0.4998412775277108 0  0.7398165998560814 -0.5535192694951373 0  0.1580042122341573 -0.3100246140259917 0  -0.7291666666666667 -0.7142857142857142 0  -0.375 -1 0  0.6483368386154684 0.8514905990110488 0  -0.1295370103291928 -0.2826118305021242 0  0.07458201853700455 0.1123894386563915 0  0.6146465857036327 -0.3161203659316075 0  0.5551898493894731 -0.740296118159085 0  0.375 -1 0  0.482702798370208 -0.084133350091034 0  0.87890625 0.68359375 0  -0.05917195534525846 0.4971092425697621 0  0.1260710309213975 0.6343750312956699 0  0.8690476190476191 -0.3077066815262848 0  -0.2912010232560567 0.3668168386732139 0  -0.875 1 0  -1 0.875 0  1 -0.875 0  0.875 -1 0  -0.8689564281364567 -0.006189266075306407 0  -0.7449425635110547 0.08458938160051771 0  -0.7150266761936593 -0.1739444581417552 0  -0.5260034831318311 -0.711099823962112 0  -0.4724626808827322 -0.871722230709409 0  0.4734436795977052 0.377714794132168 0  -0.875 -1 0  -1 -0.875 0  0.6927189078571988 0.5156567235715964 0  -0.3742497615796874 -0.4296005251260107 0  -0.1969436423297711 -0.6387157229772615 0  -0.6179496409766825 -0.08933356056510935 0  -0.424405057115988 0.04452428810878029 0  -0.08479048335844169 0.1279607007132633 0  0.003830300099055113 0.8712085230656206 0  0.8748778838820267 -1.379218479898026e-05 0  -0.375 1 0  -0.625 1 0  1 0.125 0  -0.125 1 0  1 -0.375 0  1 -0.125 0  1 -0.625 0  0.625 -1 0  0.125 -1 0  -0.625 -1 0  -1 -0.625 0  -1 0.125 0  -1 0.375 0  -1 0.625 0  1 0.375 0  1 0.625 0  0.6325660748712082 0.3335187599557389 0  -0.06420945895056573 0.7549874027425891 0  -0.8769015540914771 0.2478802253893416 0  0.871875 0.871875 0  -0.6868091492840067 0.3270978624973681 0  -0.5363597469565949 0.412994850055505 0  -0.6803734992638302 0.5574295000651103 0  -0.7076253581162534 -0.8803439094224437 0  -0.8778089002295137 -0.5106896447504627 0  -0.3860184984222981 0.530566778071246 0  0.6109900617121508 0.1128453077697081 0  0.3896945134930274 -0.1915382873255086 0  0.7605656944697778 -0.06822134873122943 0  0.3576151269893478 0.5948388411612135 0  -0.5689902680792265 -0.5143596830118065 0  0.6262446286847614 -0.5735657901943212 0  0.2030558252325225 -0.5625263842513452 0  0.6123273142928579 0.7407533260723429 0  0.4016460890123554 -0.3042863223111857 0  -0.59039693199147 0.7578418819188018 0  0.7276932493917544 -0.3705808024528924 0  0.5222536818742854 -0.4713886230400014 0  -0.5101986527137737 0.8848365765607674 0  0.510560172809238 0.5356013299918891 0  -0.3603569195756083 0.75823710606415 0  0.1967279277813232 0.728226870058472 0  -0.6086880986371127 0.1545624071548516 0  -0.38105366729386 0.1511189987807864 0  -0.2944659463671584 -0.7359061804869591 0  0.5060729154966499 -0.3475227845833823 0  -0.09281616240412746 -0.06197858250969457 0  0.7649739583333334 0.6673177083333334 0  0.7628906249999999 0.890234375 0  -0.2666864184909611 0.2585504071132311 0  0.3635064892129658 0.3878003602709461 0  -0.2339409722222222 0.8901937905844155 0  -0.1718792125974916 -0.8957733325456778 0  0.1001768566329531 0.4023510017391879 0  0.3120260172693757 -0.4540546875576884 0  0.7804062804433681 0.1896628610854537 0  0.4087715451998049 0.187961780041608 0  -0.1584963477271457 0.5451611892421655 0  -0.8926817849258324 0.463022006336401 0  0.2338091473445219 -0.07576267331277289 0  0.08171112182813692 -0.2349087687359925 0  0.04635385178956847 -0.1044635073718474 0  -0.4377391632114205 -0.6448874471423088 0  -0.1907678351227189 0.6480215912813945 0  0.300605946475244 0.4741444604171038 0  -0.2145033720757486 -0.06751709909419711 0  0.6069191921170397 -0.005492331448357812 0  0.0214718770761248 0.6032397936031719 0  0.5476675683364878 0.8992752415326501 0  0.4387475014316537 0.9093708953002239 0  -0.4932997685306436 -0.4381009159993523 0  0.2515197695339056 -0.1791673369138964 0  -0.7291666666666667 -0.6088789682539681 0  -0.9166666666666667 -0.6875 0  0.620579540363709 -0.2122431523583302 0  -0.484950136419973 0.6719440339397442 0  0.2857044415400258 0.0137589173127316 0  -0.8945708364098356 -0.288306105327986 0  0.4043102720140535 0.7842914560451557 0  0.04123256238752064 -0.9026968245801402 0  0.2003676884403109 -0.9091888601740487 0  0.1068775558538842 -0.7373377130403223 0  -0.4804566783514427 -0.1763307203045643 0  0.108286342087769 -0.3993789328997278 0  -0.191883080105361 -0.3640821726430649 0  -0.07025064492006244 0.2984876656890053 0  -0.7039324641409584 0.788312126296613 0  -0.7311286585775438 0.8932502354831682 0  0.5171409396884947 0.1503852691889257 0  0.4229392823658633 -0.003216522184234835 0  -0.5621736087218259 -0.919558629836806 0  -0.626474064879544 -0.7266572613636506 0  0.2446828746617422 0.2867616783302419 0  0.1759429608742923 0.4776611759306416 0  -0.3468240303741654 -0.5260416435617549 0  -0.7465808808425306 0.4069574477998361 0  -0.7819962170660292 0.2802441065650652 0  -0.3742623214119594 -0.8547800509641984 0  0.1014498009713561 0.8506721983266377 0  0.4285217620918213 -0.5230190595570253 0  0.4091738370487775 -0.6256346204225141 0  0.78125 0.46875 0  0.90625 0.53125 0  -0.4791801348852565 0.2553992655702126 0  0.7843318610782772 -0.7086046956885941 0  0.8909728264971901 -0.7355183796514634 0  0.7041908166528879 -0.7830649143180282 0  0.7311821352
[...]
<PointData  Vectors="f_22"> 
<DataArray  type="Float64"  Name="f_22"  NumberOfComponents="3" format="ascii">-2.8495599523736810e-03 -2.8922166599941140e-03 0.0000000000000000e+00  -2.8495599523736810e-03 -2.8922166599941140e-03 0.0000000000000000e+00  -2.8495599523736810e-03 -2.8922166599941140e-03 0.0000000000000000e+00  -2.8495599523736810e-03 -2.8922166599941140e-03 0.0000000000000000e+00  -2.8495508474765895e-03 -2.9122091547165792e-03 0.0000000000000000e+00  -2.8707941646392622e-03 -2.8922063482949055e-03 0.0000000000000000e+00  -2.8495508474765895e-03 -2.9122091547165792e-03 0.0000000000000000e+00  -2.8707941646392622e-03 -2.8922063482949055e-03 0.0000000000000000e+00  -2.8707990583064680e-03 -2.9122217116720182e-03 0.0000000000000000e+00  -2.7193765935020894e-03 -2.8922105396646598e-03 0.0000000000000000e+00  -2.8495568199126591e-03 -2.7614129174572039e-03 0.0000000000000000e+00  -2.8495568199126591e-03 -2.7614129174572039e-03 0.0000000000000000e+00  -3.0009793737521611e-03 -2.8922080628278625e-03 0.0000000000000000e+00  -2.7193765935020894e-03 -2.8922105396646598e-03 0.0000000000000000e+00  -2.8495525090083125e-03 -3.0430222817063777e-03 0.0000000000000000e+00  -3.0009793737521611e-03 -2.8922080628278625e-03 0.0000000000000000e+00  -2.8495525090083125e-03 -3.0430222817063777e-03 0.0000000000000000e+00  -2.7269186770950871e-03 -3.0408074848804292e-03 0.0000000000000000e+00  -2.9989224271652491e-03 -2.7687936342604457e-03 0.0000000000000000e+00  -2.7193826016161183e-03 -2.8097241546929884e-03 0.0000000000000000e+00  -2.9672492011656934e-03 -3.0430231935422436e-03 0.0000000000000000e+00  -2.8400726277219603e-03 -2.7619831620137340e-03 0.0000000000000000e+00  -3.0007012851036223e-03 -2.9440854261525932e-03 0.0000000000000000e+00  -2.7260384043911504e-03 -2.7683100867602812e-03 0.0000000000000000e+00  -2.9861976816453820e-03 -3.0284766578997152e-03 0.0000000000000000e+00  -2.7681205165670840e-03 -2.9986198926994063e-03 0.0000000000000000e+00  -2.9550418751065101e-03 -2.7848041765497445e-03 0.0000000000000000e+00  -2.9561588286744259e-03 -2.8097198382475426e-03 0.0000000000000000e+00  -2.7274497058399579e-03 -2.9574416924214794e-03 0.0000000000000000e+00  -2.7350028220173568e-03 -3.0164992751966508e-03 0.0000000000000000e+00  -2.9741325417962749e-03 -2.7773652194104485e-03 0.0000000000000000e+00  -2.8400749040740432e-03 -3.0317321252944264e-03 0.0000000000000000e+00  -2.7512322614216930e-03 -2.7890506490839428e-03 0.0000000000000000e+00  -2.9588546372492203e-03 -3.0252202967287934e-03 0.0000000000000000e+00  -2.7462608024387920e-03 -2.9212596216311787e-03 0.0000000000000000e+00  -2.9326400966918956e-03 -2.8034985120691022e-03 0.0000000000000000e+00  -2.7468543474390987e-03 -3.0375830810146403e-03 0.0000000000000000e+00  -2.7952037142429322e-03 -2.8191497304687250e-03 0.0000000000000000e+00  -2.9475830597431416e-03 -2.9991185493914154e-03 0.0000000000000000e+00  -2.9943278295876765e-03 -2.9947092176325699e-03 0.0000000000000000e+00  -2.7561201859443701e-03 -2.8490723240231415e-03 0.0000000000000000e+00  -2.8895659701950391e-03 -3.0076624225992906e-03 0.0000000000000000e+00  -2.8495567511577224e-03 -2.7955887821933122e-03 0.0000000000000000e+00  -2.7531141637328043e-03 -2.8922152748355988e-03 0.0000000000000000e+00  -2.9522269349096242e-03 -2.8922111673415365e-03 0.0000000000000000e+00  -2.8495578611151869e-03 -2.9947042124803848e-03 0.0000000000000000e+00  -2.8503434565639620e-03 -2.7938511908222078e-03 0.0000000000000000e+00  -2.7429764476874685e-03 -2.7637001090700820e-03 0.0000000000000000e+00  -3.0012546469726908e-03 -3.0398726799274341e-03 0.0000000000000000e+00  -2.8495516276880414e-03 -3.0088517249123388e-03 0.0000000000000000e+00  -2.8495515238143297e-03 -2.8097241335325166e-03 0.0000000000000000e+00  -2.8495567511577224e-03 -2.7955887821933122e-03 0.0000000000000000e+00  -2.8495578611151869e-03 -2.9947042124803848e-03 0.0000000000000000e+00  -2.7681208103630035e-03 -2.8922093527667747e-03 0.0000000000000000e+00  -2.9672446344524840e-03 -2.8922070527767998e-03 0.0000000000000000e+00  -2.7681208103630035e-03 -2.8922093527667747e-03 0.0000000000000000e+00  -2.8495515238143297e-03 -2.8097241335325166e-03 0.0000000000000000e+00  -2.7531141637328043e-03 -2.8922152748355988e-03 0.0000000000000000e+00  -2.9522269349096242e-03 -2.8922111673415365e-03 0.0000000000000000e+00  -2.8495516276880414e-03 -3.0088517249123388e-03 0.0000000000000000e+00  -2.9672446344524840e-03 -2.8922070527767998e-03 0.0000000000000000e+00  -2.7559726584090848e-03 -2.7707170392058016e-03 0.0000000000000000e+00  -2.9495655845495098e-03 -2.9405648047688285e-03 0.0000000000000000e+00  -2.9955026878493709e-03 -2.8442449899768454e-03 0.0000000000000000e+00  -3.0005161379289464e-03 -2.7727036176586613e-03 0.0000000000000000e+00  -2.9352507636169842e-03 -2.7616627058503714e-03 0.0000000000000000e+00  -2.9434280890753822e-03 -2.7627490385318076e-03 0.0000000000000000e+00  -2.7223810242750324e-03 -3.0253769917055594e-03 0.0000000000000000e+00  -2.7800182089538004e-03 -3.0423023189992526e-03 0.0000000000000000e+00  -2.9591431512769237e-03 -2.9112186757113425e-03 0.0000000000000000e+00  -2.8047010286391585e-03 -2.9750780549730694e-03 0.0000000000000000e+00  -2.7237393256910967e-03 -2.9936372398775544e-03 0.0000000000000000e+00  -2.9857005765598255e-03 -2.8747250483239289e-03 0.0000000000000000e+00  -2.9927580758206617e-03 -2.8243977964475899e-03 0.0000000000000000e+00  -2.7260363891435523e-03 -2.8231588371783328e-03 0.0000000000000000e+00  -2.7768815216582302e-03 -2.7646348209318422e-03 0.0000000000000000e+00  -2.7190676183683660e-03 -2.7650544812934247e-03 0.0000000000000000e+00  -2.9962046034815826e-03 -2.9721201794627593e-03 0.0000000000000000e+00  -2.9412893003008395e-03 -2.9838052553137549e-03 0.0000000000000000e+00  -2.9363301078112031e-03 -3.0426781684768974e-03 0.0000000000000000e+00  -2.7823938999493639e-03 -2.9653384350348494e-03 0.0000000000000000e+00  -2.7752215388032763e-03 -2.8177830614282873e-03 0.0000000000000000e+00  -2.7213143261375322e-03 -2.8778410736848494e-03 0.0000000000000000e+00  -2.8925573114372393e-03 -3.0427026378017806e-03 0.0000000000000000e+00  -2.7596897265579371e-03 -3.0200563205532854e-03 0.0000000000000000e+00  -2.7219898695451258e-03 -3.0425339792009972e-03 0.0000000000000000e+00  -2.7900566241608679e-03 -3.0284715575361111e-03 0.0000000000000000e+00  -2.7743036005296062e-03 -2.9708271646234066e-03 0.0000000000000000e+00  -2.9947418393950704e-03 -2.7610597350851028e-03 0.0000000000000000e+00  -2.9861943491487756e-03 -2.8326498245505290e-03 0.0000000000000000e+00  -2.9283575475337249e-03 -2.8165772880062337e-03 0.0000000000000000e+00  -2.7260325861345538e-03 -2.9537174137837527e-03 0.0000000000000000e+00  -2.9981697908781535e-03 -2.8035813643408508e-03 0.0000000000000000e+00  -2.7234490404391106e-03 -2.9675584330890979e-03 0.0000000000000000e+00  -3.0008328964290245e-03 -3.0356287600795616e-03 0.0000000000000000e+00  -2.8160991945658550e-03 -2.9493443292670377e-03 0.0000000000000000e+00  -2.9067370704033918e-03 -2.8575667683420508e-03 0.0000000000000000e+00  -2.9238654377872655e-03 -2.8368229139010145e-03 0.0000000000000000e+00  -2.9238670867471938e-03 -2.9490832881961132e-03 0.0000000000000000e+00  -2.9058619002615919e-03 -2.7683064109473945e-03 0.0000000000000000e+00  -2.9960108949401956e-03 -3.0040606027633221e-03 0.0000000000000000e+00  -2.9958281841098878e-03 -3.0075032420783217e-03 0.0000000000000000e+00  -2.8797190921735581e-03 -2.9836228976207152e-03 0.0000000000000000e+00  -2.7201144767528091e-03 -3.0274002350093878e-03 0.0000000000000000e+00  -2.7202270079936834e-03 -2.7897651836745478e-03 0.0000000000000000e+00  -2.7341565592997612e-03 -2.8922085759289181e-03 0.0000000000000000e+00  -2.7812668493440006e-03 -2.7634396479750082e-03 0.0000000000000000e+00  -2.9567725665232804e-03 -3.0174705022389609e-03 0.0000000000000000e+00  -2.8495522515326155e-03 -3.0361310501753644e-03 0.0000000000000000e+00  -2.9799773669334068e-03 -2.7627150760837988e-03 0.0000000000000000e+00  -2.8161021446235627e-03 -2.8922038338356406e-03 0.0000000000000000e+00  -2.7907787687503436e-03 -2.8276237381408766e-03 0.0000000000000000e+00  -2.8601288119163167e-03 -2.7901735162260801e-03 0.0000000000000000e+00  -2.7434876807225948e-03 -2.7971463889906239e-03 0.0000000000000000e+00  -2.7261025159570334e-03 -2.8650029489383074e-03 0.0000000000000000e+00  -2.7995566716138556e-03 -2.8898759621838166e-03 0.0000000000000000e+00  -2.8218956275800310e-03 -3.0240361716325627e-03 0.0000000000000000e+00  -2.9830888552815444e-03 -3.0432630573425765e-03 0.0000000000000000e+00  -2.9112370044305199e-03 -3.0324412323945223e-03 0.0000000000000000e+00  -2.8878897788335335e-03 -2.7659111138886362e-03 0.0000000000000000e+00  -2.9067388049807841e-03 -2.7829551533118130e-03 0.0000000000000000e+00  -2.8495522786229073e-03 -3.0284752897806813e-03 0.0000000000000000e+00  -2.8826826686835154e-03 -2.8430655801073268e-03 0.0000000000000000e+00  -2.7202711541116512e-03 -2.9326005766074424e-03 0.0000000000000000e+00  -2.9042454703745598e-03 -2.8922097659815054e-03 0.0000000000000000e+00  -2.9811444514539582e-03 -2.7742922628080958e-03 0.0000000000000000e+00  -2.9709333261719495e-03 -2.7754435023520443e-03 0.0000000000000000e+00  -2.7304202192864648e-03 -2.7654883951195148e-03 0.0000000000000000e+00  -2.8495516619887625e-03 -2.9653343325421314e-03 0.0000000000000000e+00  -2.9164165254478439e-03 -2.9934314526538627e-03 0.0000000000000000e+00  -2.7852466626374227e-03 -3.0176581901810010e-03 0.0000000000000000e+00  -2.7265973634797835e-03 -2.7864769195746443e-03 0.0000000000000000e+00  -2.9751270378114763e-03 -3.0315418720165501e-03 0.0000000000000000e+00  -2.7871124891709741e-03 -3.0433646261694763e-03 0.0000000000000000e+00  -2.7407139166258348e-03 -3.0054267588049619e-03 0.0000000000000000e+00  -2.9944529903846986e-03 -2.9101064086648702e-03 0.0000000000000000e+00  -2.7310768650837679e-03 -2.8293733100019170e-03 0.0000000000000000e+00  -2.9794865477893147e-03 -2.9642580937506912e-03 0.0000000000000000e+00  -2.7846713599840090e-03 -2.7755769888299872e-03 0.0000000000000000e+00  -2.7854461557958433e-03 -2.8016552267001709e-03 0.0000000000000000e+00  -2.7522928269222689e-03 -2.9143363583306122e-03 0.0000000000000000e+00  -2.8495498788684080e-03 -2.8575700571796588e-03 0.0000000000000000e+00  -2.7954523235152818e-03 -2.8856448502219737e-03 0.0000000000000000e+00  -3.0003468522839536e-03 -2.9468564035688952e-03 0.0000000000000000e+00  -2.9731728299035318e-03 -2.9554114949467631e-03 0.0000000000000000e+00  -2.8495562311816602e-03 -2.9468542061417483e-03 0.0000000000000000e+00  -2.9630466911610199e-03 -2.8472121728837373e-03 0.0000000000000000e+00  -2.9078919097622752e-03 -3.0300878063105677e-03 0.0000000000000000e+00  -3.0009797849562532e-03 -2.8064722931878281e-03 0.0000000000000000e+00  -2.7195826342658221e-03 -2.9980632497618185e-03 0.0000000000000000e+00  -2.7496891230018093e-03 -2.9780743888989129e-03 0.0000000000000000e+00  -2.7434818087298109e-03 -2.7897677306450786e-03 0.0000000000000000e+00  -2.8495541180524656e-03 -2.7759579759417769e-03 0.0000000000000000e+00  -2.9140207556070572e-03 -3.0235123215152987e-03 0.0000000000000000e+00  -2.7576596803281007e-03 -2.8556749855303386e-03 0.0000000000000000e+00  -2.9188351414567654e-03 -2.9446397050902225e-03 0.0000000000000000e+00  -2.7480202095282349e-03 -3.0304521574006688e-03 0.0000000000000000e+00  -2.7503483210487450e-03 -3.0391807888279971e-03 0.0000000000000000e+00  -2.8495522515326155e-03 -3.0361310501753644e-03 0.0000000000000000e+00  -2.8336403399196624e-03 -3.0433546696432617e-03 0.0000000000000000e+00  -2.9724076881861806e-03 -2.9452094140241069e-03 0.0000000000000000e+00  -3.0010650562122812e-03 -2.8860213955691429e-03 0.0000000000000000e+00  -2.9842607832173142e-03 -2.9657662167200580e-03 0.0000000000000000e+00  -2.7503241275474086e-03 -2.9493425556461773e-03 0.0000000000000000e+00  -2.9931439470925652e-03 -2.7967316461883691e-03 0.0000000000000000e+00  -2.8495597139588159e-03 -2.8390994392002715e-03 0.0000000000000000e+00  -2.9042454703745598e-03 -2.8922097659815054e-03 0.0000000000000000e+00  -2.7964898680933018e-03 -2.8922169799720943e-03 0.0000000000000000e+00  -2.8495562311816602e-03 -2.9468542061417483e-03 0.0000000000000000e+00  -2.8680550250497509e-03 -2.8367026860483093e-03 0.0000000000000000e+00  -2.9074026813245865e-03 -2.7941202973012858e-03 0.0000000000000000e+00  -2.7960792064282824e-03 -2.7860833409900218e-03 0.0000000000000000e+00  -2.7426886416518029e-03 -2.7610713030077772e-03 0.0000000000000000e+00  -2.7951986590310789e-03 -2.7628057133187011e-03 0.0000000000000000e+00  -2.9947000797041806e-03 -3.0433687081328959e-03 0.0000000000000000e+00  -2.8495597139588159e-03 -2.8390994392002715e-03 0.0000000000000000e+00  -2.7964898680933018e-03 -2.8922169799720943e-03 0.0000000000000000e+00  -3.0002897336553784e-03 -3.0123001667248005e-03 0.0000000000000000e+00  -2.7251412186901540e-03 -2.7761091785363798e-03 0.0000000000000000e+00  -2.7280565620656999e-03 -2.8286991778633140e-03 0.0000000000000000e+00  -2.8313827972726770e-03 -2.7673464082525016e-03 0.0000000000000000e+00  -2.8903256300391055e-03 -2.7677173197500431e-03 0.0000000000000000e+00  -2.9250492998010710e-03 -2.8748057361470390e-03 0.0000000000000000e+00  -2.9058265422247072e-03 -2.9139063423574540e-03 0.0000000000000000e+00  -2.8707862240851373e-03 -2.9468998927591637e-03 0.0000000000000000e+00  -2.8495541180524656e-03 -2.7759579759417769e-03 0.0000000000000000e+00  -2.8495540307731252e-03 -2.7683073907532121e-03 0.0000000000000000e+00  -2.9238637548510216e-03 -2.8922078038080118e-03 0.0000000000000000e+00  -2.8495498788684080e-03 -2.8575700571796588e-03 0.0000000000000000e+00  -2.7341565592997612e-03 -2.8922085759289181e-03 0.0000000000000000e+00  -2.8161021446235627e-03 -2.8922038338356406e-03 0.0000000000000000e+00  -2.7260346282088096e-03 -2.8922095575106836e-03 0.0000000000000000e+00  -2.8495522786229073e-03 -3.0284752897806813e-03 0.0000000000000000e+00  -2.8495516619887625e-03 -2.9653343325421314e-03 0.0000000000000000e+00  -2.8495540307731252e-03 -2.7683073907532121e-03 0.0000000000000000e+00  -2.7260346282088096e-03 -2.8922095575106836e-03 0.0000000000000000e+00  -2.9238637548510216e-03 -2.8922078038080118e-03 0.0000000000000000e+00  -2.9943250286061903e-03 -2.8922090272220568e-03 0.0000000000000000e+00  -2.9861969229014670e-03 -2.8922124853583671e-03 0.0000000000000000e+00  -2.9943250286061903e-03 -2.8922090272220568e-03 0.0000000000000000e+00  -2.9861969229014670e-03 -2.8922124853583671e-03 0.0000000000000000e+00  -2.9874662495983340e-03 -3.0269395458148753e-03 0.0000000000000000e+00  -2.9505310796298719e-03 -2.8837983878971627e-03 0.0000000000000000e+00  -2.9666318579381870e-03 -2.8398413855584047e-03 0.0000000000000000e+00  -2.9055630977526683e-03 -2.9481647557771549e-03 0.0000000000000000e+00  -2.9861990914930104e-03 -2.7794294605328418e-03 0.0000000000000000e+00  -2.9986120466087575e-03 -2.7611853986166139e-03 0.0000000000000000e+00  -2.9967815409017670e-03 -2.7780507643553592e-03 0.0000000000000000e+00  -2.7986117710417364e-03 -2.7842569325869796e-03 0.0000000000000000e+00  -2.7191024765427191e-03 -2.8402105677415544e-03 0.0000000000000000e+00  -2.9993020566455621e-03 -2.7738427699039278e-03 0.0000000000000000e+00  -2.9190189052865864e-03 -3.0311275657978506e-03 0.0000000000000000e+00  -2.7892257591162302e-03 -3.0380475061141357e-03 0.0000000000000000e+00  -2.8406017054798298e-03 -2.9911052390737859e-03 0.0000000000000000e+00  -2.9916575340773305e-03 -3.0334974872637294e-03 0.0000000000000000e+00  -2.7190479547260179e-03 -2.7625617578610207e-03 0.0000000000000000e+00  -2.7206849367596470e-03 -3.0282191465433018e-03 0.0000000000000000e+00  -2.7200084707792024e-03 -2.9941005973530038e-03 0.0000000000000000e+00  -2.9552985049283963e-03 -3.0308886655147035e-03 0.0000000000000000e+00  -2.7512843866014281e-03 -3.0393915555104625e-03 0.0000000000000000e+00  -2.9495536155608403e-03 -2.7642506190803293e-03 0.0000000000000000e+00  -2.7350486654188662e-03 -3.0019341881487955e-03 0.0000000000000000e+00  -2.7208940947984861e-03 -3.0419715390455938e-03 0.0000000000000000e+00  -2.9000735105674420e-03 -2.7611641775709358e-03 0.0000000000000000e+00  -2.9989158587523114e-03 -3.0426145737086768e-03 0.0000000000000000e+00  -2.9494150679665282e-03 -2.7789907749313893e-03 0.0000000000000000e+00  -2.9593274441689780e-03 -2.9919547523334583e-03 0.0000000000000000e+00  -2.9352797845357296e-03 -2.7661880780635562e-03 0.0000000000000000e+00  -2.9339861995508650e-03 -2.7747788271795669e-03 0.0000000000000000e+00  -2.7491421820257326e-03 -2.7957770532190296e-03 0.0000000000000000e+00  -2.7401144210246341e-03 -3.0427977986076252e-03 0.0000000000000000e+00  -2.8433580933202576e-03 -2.8713215291739582e-03 0.0000000000000000e+00  -2.9766415965109807e-03 -2.9895880586938510e-03 0.0000000000000000e+00  -2.8977763318480754e-03 -2.9903121048895968e-03 0.0000000000000000e+00  -2.9696781739184351e-03 -2.8042637780845087e-03 0.0000000000000000e+00  -2.9959925963827612e-03 -3.0344382525501531e-03 0.0000000000000000e+00  -2.8977819738936631e-03 -2.8152168339801143e-03 0.0000000000000000e+00  -2.8048364790565082e-03 -2.8384013102182811e-03 0.0000000000000000e+00  -2.9976137327175963e-03 -2.9553188524348043e-03 0.0000000000000000e+00  -2.7223654148205824e-03 -3.0247414802798984e-03 0.0000000000000000e+00  -2.9479868921365106e-03 -2.9841069657499048e-03 0.0000000000000000e+00  -2.9474040564805353e-03 -3.0401091794388926e-03 0.0000000000000000e+00  -2.9980541511637122e-03 -2.8437518614581074e-03 0.0000000000000000e+00  -3.0012593120523792e-03 -2.8461956971227720e-03 0.0000000000000000e+00  -2.8373064830169502e-03 -3.0040179815586229e-03 0.0000000000000000e+00  -2.7733050613589021e-03 -2.9476469416968962e-03 0.0000000000000000e+00  -2.8248544562824891e-03 -2.9325515619610552e-03 0.0000000000000000e+00  -2.7290512692641632e-03 -2.7660456665614427e-03 0.0000000000000000e+00  -2.9812551959171206e-03 -2.8310462247286153e-03 0.0000000000000000e+00  -3.0013787235183844e-03 -3.0221560090306480e-03 0.0000000000000000e+00  -2.8409230629238488e-03 -2.8221725784518285e-03 0.0000000000000000e+00  -2.8683644908136020e-03 -3.0318497709750231e-03 0.0000000000000000e+00  -2.9902467060337339e-03 -2.9216864810595244e-03 0.0000000000000000e+00  -2.8938949379830412e-03 -3.0399548113675956e-03 0.0000000000000000e+00  -2.8895291605076485e-03 -3.0423367575163579e-03 0.0000000000000000e+00  -2.7240891625655312e-03 -2.7616594876645273e-03 0.0000000000000000e+00  -2.7940250621010668e-03 -3.0092944337845708e-03 0.0000000000000000e+00  -2.7239785938108440e-03 -2.7897683177654396e-03 0.0000000000000000e+00  -2.7372123979408627e-03 -2.8561186574738331e-03 0.0000000000000000e+00  -2.7814357396924254e-03 -3.0293307724548004e-03 0.0000000000000000e+00  -2.9754593436085827e-03 -2.7620395648670381e-03 0.0000000000000000e+00  -2.8768762921681677e-03 -3.0185403252179464e-03 0.0000000000000000e+00  -2.7559342302735210e-03 -2.8469678855454184e-03 0.0000000000000000e+00  -2.9401838001724095e-03 -3.0396701066326337e-03 0.0000000000000000e+00  -2.8076703010847465e-03 -2.9303117947036814e-03 0.0000000000000000e+00  -2.8103562609199323e-03 -2.9931937567844410e-03 0.0000000000000000e+00  -2.7495281652954381e-03 -2.9580497649414825e-03 0.0000000000000000e+00  -2.7951465412975824e-03 -2.7622942531999517e-03 0.0000000000000000e+00  -2.7296544894407728e-03 -2.9586277048997476e-03 0.0000000000000000e+00  -2.7364219685333618e-03 -2.8306283999689911e-03 0.0000000000000000e+00  -2.9799769214277232e-03 -2.8811573715034548e-03 0.0000000000000000e+00  -2.9386995993437859e-03 -2.7833607244895056e-03 0.0000000000000000e+00  -2.8964816745649965e-03 -2.7902943724394647e-03 0.0000000000000000e+00  -2.9337116051775069e-03 -3.0422791263667302e-03 0.0000000000000000e+00  -2.8693732488476878e-03 -3.0413140673815962e-03 0.0000000000000000e+00  -2.8146925096410478e-03 -2.7621516834574317e-03 0.0000000000000000e+00  -2.7466599517339497e