<?xml version="1.0"?>
<VTKFile type="UnstructuredGrid"  version="0.1"  >
<UnstructuredGrid>
<Piece  NumberOfPoints="1380" NumberOfCells="2630">
<Points>
<DataArray  type="Float64"  NumberOfComponents="3"  format="ascii">-1 -1 0  1 -1 0  1 1 0  -1 1 0  0 -1 0  1 0 0  0 1 0  -1 0 0  0 0 0  -1 -0.5 0  -0.5 -1 0  -0.5 1 0  -1 0.5 0  1 -0.5 0  0.5 -1 0  1 0.5 0  0.5 1 0  0.4166666666666666 -0.4166666666666667 0  -0.4166666666666667 0.4166666666666667 0  -0.25 -0.5 0  0.5 0.25 0  -0.4861111111111112 -0.06944444444444445 0  0.0732758620689655 0.507183908045977 0  -0.625 -0.625 0  0.625 0.625 0  0.7380952380952381 -0.25 0  -0.7099116161616161 0.2105429292929293 0  -0.25 0.7380952380952381 0  0.105392156862745 -0.6348039215686275 0  0.6770833333333334 -0.6770833333333333 0  -0.6770833333333334 0.6770833333333334 0  0.3472222222222222 -0.06944444444444446 0  -0.7264957264957265 -0.3044871794871795 0  0.3141940982507127 0.7297313660835709 0  0.02049587951122483 -0.3227479397556124 0  -0.2690972222222223 0.1475694444444444 0  0.3859500089908372 -0.7274430156831472 0  -0.2228477945123298 -0.1761765495248019 0  0.2182539682539683 0.1884920634920635 0  0.75 0.375 0  -0.145442219440968 -0.7602211097204841 0  0.7088913690476191 0.0427827380952381 0  -0.75 -1 0  -1 -0.75 0  1 0.75 0  0.75 1 0  -0.7439982703698937 -0.04614153195464455 0  -0.4609235096577606 -0.3356498099556895 0  0.4063134471431929 0.4895621842856023 0  0.25 -1 0  -0.25 -1 0  -0.75 1 0  0.75 -1 0  -1 -0.25 0  -1 0.25 0  1 -0.25 0  -0.25 1 0  1 -0.75 0  -1 0.75 0  0.25 1 0  1 0.25 0  -0.4041423272138783 -0.7597141090712928 0  0.06500839607911253 0.7578103030529481 0  -0.1572801182352047 0.3838997021864289 0  -0.6528005242053915 0.4409494757946086 0  -0.4930160984848485 0.1544744318181818 0  -0.4732142857142858 0.7752976190476191 0  0.6398809523809523 -0.4538690476190476 0  0.5166054117396399 -0.2161233620965164 0  -0.002273787244753427 0.2232363985975174 0  0.1500564496765022 -0.1524955293952667 0  0.2016720420046758 -0.4410343282803009 0  -0.08495178036419618 0.6274139771124571 0  -0.8367311471133162 0.3642591720794645 0  -0.8333333333333334 -0.625 0  -0.594323836800685 -0.8231079456002283 0  -0.4466957714776065 -0.5349126855671806 0  0.8125 0.5625 0  0.78125 0.78125 0  0.5091392650016769 0.7947130883338923 0  0.125 -0.8382681931833136 0  -0.8184523809523809 -0.8184523809523809 0  -0.07781530426104531 -0.5819319697006881 0  0.5085055196703295 0.04967610411902112 0  0.2918471072074933 -0.276017202318847 0  0.5120763537765269 -0.5898771553229597 0  0.625 -0.8585349462365591 0  0.8158532234335381 -0.8158532234335381 0  -0.5198088446315396 0.5739411553684605 0  -0.8585349462365591 0.625 0  -0.8150493805516597 0.8156205699829586 0  0.8585349462365591 -0.625 0  -0.2688268348649726 0.5439331383603209 0  0.8242100426758139 -0.4436043596336612 0  0.5833756314287952 0.4479378157143976 0  0.8690476190476191 -0.125 0  -0.125 0.8690476190476191 0  -0.8692745600729823 0.125 0  0.8696725120759167 0.125 0  -0.625 0.8711516477451908 0  0.2339522463269718 0.3879558377955778 0  0.2453709502295031 0.5655822922838026 0  0.1730610651637797 0.02021709580868947 0  0.3245402594056757 -0.5644672020485209 0  -0.7291666666666666 -0.4816595441595442 0  -1 -0.375 0  -0.5811140848639904 -0.2127276307675001 0  0.673332592838314 0.2158348143233718 0  0.375 1 0  -0.5714768890989919 0.2985103444040069 0  -1 -0.125 0  -0.8453692574786325 -0.1875 0  -0.3144549134065865 -0.02408675326008025 0  -0.2898414972096258 -0.3336092734780093 0  -0.1075052092206287 -0.4224330421314983 0  -0.05043970703604117 -0.1652278959397459 0  0.6459672950297897 -0.1113415301525317 0  0.4645210271029513 0.6398480556579343 0  0.3512863754411909 0.0937979496253573 0  -0.6063160985568274 0.03891469652249891 0  -0.3428819444444445 0.8690476190476191 0  0.625 1 0  -0.1602164796159982 0.02697860906625157 0  0.04648110064133829 -0.4808416424239687 0  1 0.875 0  -0.3836102479201657 0.6484936449177356 0  -0.3776011723096096 0.263078478984336 0  -0.6024978259969829 -0.3949628096211138 0  0.125 1 0  0.2010781308272777 0.8456221018461906 0  0.2822509696388829 -0.845902544691141 0  -0.3285533674953515 -0.6289773550938936 0  0.3461306793221754 0.278777492464833 0  0.4737475672408696 -0.8508448959534423 0  0.2384632828836344 -0.7029523187242811 0  -0.004777287059791593 0.3759269695907358 0  -0.8499735021850066 -0.3912320205328522 0  0.1222536293721587 0.2963971539625205 0  -0.3769456520999688 -0.203572526805711 0  -0.2749617205755651 -0.8464290792698902 0  0.004805888512766143 -0.747174355248311 0  -0.125 -1 0  -0.06001061822252458 -0.8724007765244854 0  0.875 0.4375 0  0.854421179608893 0.271342359217786 0  0.875 1 0  -0.1499861095763589 0.2358309656934888 0  0.3381943639137225 0.8663061796405532 0  -0.7853090110442228 0.4998412775277108 0  0.7398165998560814 -0.5535192694951373 0  0.1580042122341573 -0.3100246140259917 0  -0.7291666666666667 -0.7142857142857142 0  -0.375 -1 0  0.6483368386154684 0.8514905990110488 0  -0.1295370103291928 -0.2826118305021242 0  0.07458201853700455 0.1123894386563915 0  0.6146465857036327 -0.3161203659316075 0  0.5551898493894731 -0.740296118159085 0  0.375 -1 0  0.482702798370208 -0.084133350091034 0  0.87890625 0.68359375 0  -0.05917195534525846 0.4971092425697621 0  0.1260710309213975 0.6343750312956699 0  0.8690476190476191 -0.3077066815262848 0  -0.2912010232560567 0.3668168386732139 0  -0.875 1 0  -1 0.875 0  1 -0.875 0  0.875 -1 0  -0.8689564281364567 -0.006189266075306407 0  -0.7449425635110547 0.08458938160051771 0  -0.7150266761936593 -0.1739444581417552 0  -0.5260034831318311 -0.711099823962112 0  -0.4724626808827322 -0.871722230709409 0  0.4734436795977052 0.377714794132168 0  -0.875 -1 0  -1 -0.875 0  0.6927189078571988 0.5156567235715964 0  -0.3742497615796874 -0.4296005251260107 0  -0.1969436423297711 -0.6387157229772615 0  -0.6179496409766825 -0.08933356056510935 0  -0.424405057115988 0.04452428810878029 0  -0.08479048335844169 0.1279607007132633 0  0.003830300099055113 0.8712085230656206 0  0.8748778838820267 -1.379218479898026e-05 0  -0.375 1 0  -0.625 1 0  1 0.125 0  -0.125 1 0  1 -0.375 0  1 -0.125 0  1 -0.625 0  0.625 -1 0  0.125 -1 0  -0.625 -1 0  -1 -0.625 0  -1 0.125 0  -1 0.375 0  -1 0.625 0  1 0.375 0  1 0.625 0  0.6325660748712082 0.3335187599557389 0  -0.06420945895056573 0.7549874027425891 0  -0.8769015540914771 0.2478802253893416 0  0.871875 0.871875 0  -0.6868091492840067 0.3270978624973681 0  -0.5363597469565949 0.412994850055505 0  -0.6803734992638302 0.5574295000651103 0  -0.7076253581162534 -0.8803439094224437 0  -0.8778089002295137 -0.5106896447504627 0  -0.3860184984222981 0.530566778071246 0  0.6109900617121508 0.1128453077697081 0  0.3896945134930274 -0.1915382873255086 0  0.7605656944697778 -0.06822134873122943 0  0.3576151269893478 0.5948388411612135 0  -0.5689902680792265 -0.5143596830118065 0  0.6262446286847614 -0.5735657901943212 0  0.2030558252325225 -0.5625263842513452 0  0.6123273142928579 0.7407533260723429 0  0.4016460890123554 -0.3042863223111857 0  -0.59039693199147 0.7578418819188018 0  0.7276932493917544 -0.3705808024528924 0  0.5222536818742854 -0.4713886230400014 0  -0.5101986527137737 0.8848365765607674 0  0.510560172809238 0.5356013299918891 0  -0.3603569195756083 0.75823710606415 0  0.1967279277813232 0.728226870058472 0  -0.6086880986371127 0.1545624071548516 0  -0.38105366729386 0.1511189987807864 0  -0.2944659463671584 -0.7359061804869591 0  0.5060729154966499 -0.3475227845833823 0  -0.09281616240412746 -0.06197858250969457 0  0.7649739583333334 0.6673177083333334 0  0.7628906249999999 0.890234375 0  -0.2666864184909611 0.2585504071132311 0  0.3635064892129658 0.3878003602709461 0  -0.2339409722222222 0.8901937905844155 0  -0.1718792125974916 -0.8957733325456778 0  0.1001768566329531 0.4023510017391879 0  0.3120260172693757 -0.4540546875576884 0  0.7804062804433681 0.1896628610854537 0  0.4087715451998049 0.187961780041608 0  -0.1584963477271457 0.5451611892421655 0  -0.8926817849258324 0.463022006336401 0  0.2338091473445219 -0.07576267331277289 0  0.08171112182813692 -0.2349087687359925 0  0.04635385178956847 -0.1044635073718474 0  -0.4377391632114205 -0.6448874471423088 0  -0.1907678351227189 0.6480215912813945 0  0.300605946475244 0.4741444604171038 0  -0.2145033720757486 -0.06751709909419711 0  0.6069191921170397 -0.005492331448357812 0  0.0214718770761248 0.6032397936031719 0  0.5476675683364878 0.8992752415326501 0  0.4387475014316537 0.9093708953002239 0  -0.4932997685306436 -0.4381009159993523 0  0.2515197695339056 -0.1791673369138964 0  -0.7291666666666667 -0.6088789682539681 0  -0.9166666666666667 -0.6875 0  0.620579540363709 -0.2122431523583302 0  -0.484950136419973 0.6719440339397442 0  0.2857044415400258 0.0137589173127316 0  -0.8945708364098356 -0.288306105327986 0  0.4043102720140535 0.7842914560451557 0  0.04123256238752064 -0.9026968245801402 0  0.2003676884403109 -0.9091888601740487 0  0.1068775558538842 -0.7373377130403223 0  -0.4804566783514427 -0.1763307203045643 0  0.108286342087769 -0.3993789328997278 0  -0.191883080105361 -0.3640821726430649 0  -0.07025064492006244 0.2984876656890053 0  -0.7039324641409584 0.788312126296613 0  -0.7311286585775438 0.8932502354831682 0  0.5171409396884947 0.1503852691889257 0  0.4229392823658633 -0.003216522184234835 0  -0.5621736087218259 -0.919558629836806 0  -0.626474064879544 -0.7266572613636506 0  0.2446828746617422 0.2867616783302419 0  0.1759429608742923 0.4776611759306416 0  -0.3468240303741654 -0.5260416435617549 0  -0.7465808808425306 0.4069574477998361 0  -0.7819962170660292 0.2802441065650652 0  -0.3742623214119594 -0.8547800509641984 0  0.1014498009713561 0.8506721983266377 0  0.4285217620918213 -0.5230190595570253 0  0.4091738370487775 -0.6256346204225141 0  0.78125 0.46875 0  0.90625 0.53125 0  -0.4791801348852565 0.2553992655702126 0  0.7843318610782772 -0.7086046956885941 0  0.8909728264971901 -0.7355183796514634 0  0.7041908166528879 -0.7830649143180282 0  0.7311821352
[...]
<PointData  Vectors="f_22"> 
<DataArray  type="Float64"  Name="f_22"  NumberOfComponents="3" format="ascii">-1.7966912955697047e-02 -1.6800949249434753e-02 0.0000000000000000e+00  -1.7966912955697047e-02 -1.6800949249434753e-02 0.0000000000000000e+00  -1.7966912955697047e-02 -1.6800949249434753e-02 0.0000000000000000e+00  -1.7966912955697047e-02 -1.6800949249434753e-02 0.0000000000000000e+00  -1.7912880615105441e-02 -2.0764554061857017e-02 0.0000000000000000e+00  -2.1733464060696251e-02 -1.6746630287054472e-02 0.0000000000000000e+00  -1.7912880615105441e-02 -2.0764554061857017e-02 0.0000000000000000e+00  -2.1733464060696251e-02 -1.6746630287054472e-02 0.0000000000000000e+00  -2.1790080513228706e-02 -2.0821855563197489e-02 0.0000000000000000e+00  -1.1962148677037224e-02 -1.6771460350607961e-02 0.0000000000000000e+00  -1.7937536345261903e-02 -1.0925911980237450e-02 0.0000000000000000e+00  -1.7937536345261903e-02 -1.0925911980237450e-02 0.0000000000000000e+00  -2.7743876681404083e-02 -1.6770648445886920e-02 0.0000000000000000e+00  -1.1962148677037224e-02 -1.6771460350607961e-02 0.0000000000000000e+00  -1.7937351080921791e-02 -2.6645705929716160e-02 0.0000000000000000e+00  -2.7743876681404083e-02 -1.6770648445886920e-02 0.0000000000000000e+00  -1.7937351080921791e-02 -2.6645705929716160e-02 0.0000000000000000e+00  -1.2704992164814979e-02 -2.6873396519759549e-02 0.0000000000000000e+00  -2.7945316618423366e-02 -1.1693397831537616e-02 0.0000000000000000e+00  -1.1981953490534325e-02 -1.4667252807026031e-02 0.0000000000000000e+00  -2.6800885038408401e-02 -2.6661480378529591e-02 0.0000000000000000e+00  -2.0018607700596960e-02 -1.1028853773103536e-02 0.0000000000000000e+00  -2.7701771426009068e-02 -2.2542230774485382e-02 0.0000000000000000e+00  -1.1862094852810404e-02 -1.0785913107850542e-02 0.0000000000000000e+00  -2.6434868662344745e-02 -2.5300972188395849e-02 0.0000000000000000e+00  -1.5598387214697113e-02 -2.3145101860696557e-02 0.0000000000000000e+00  -2.6183988972197501e-02 -1.1314103623163423e-02 0.0000000000000000e+00  -2.4302912967897241e-02 -1.4623266404330086e-02 0.0000000000000000e+00  -1.1854808629768636e-02 -2.3225036351001444e-02 0.0000000000000000e+00  -1.2131665654869866e-02 -2.4377738997194032e-02 0.0000000000000000e+00  -2.5524159690485253e-02 -1.1038030725018830e-02 0.0000000000000000e+00  -2.0019518244927231e-02 -2.6690748498690530e-02 0.0000000000000000e+00  -1.4510275531102235e-02 -1.1531161125430751e-02 0.0000000000000000e+00  -2.4519086017575110e-02 -2.6457808897493083e-02 0.0000000000000000e+00  -1.4176977016271818e-02 -2.1310781616399196e-02 0.0000000000000000e+00  -2.5099067018609891e-02 -1.4246788003668600e-02 0.0000000000000000e+00  -1.2611682171523378e-02 -2.6826930196093560e-02 0.0000000000000000e+00  -1.7356839342142924e-02 -1.5284886109054069e-02 0.0000000000000000e+00  -2.5867989237051778e-02 -2.5342915674591324e-02 0.0000000000000000e+00  -2.7882977764329752e-02 -2.2930322634961652e-02 0.0000000000000000e+00  -1.3053680387940161e-02 -1.7110260050283925e-02 0.0000000000000000e+00  -2.2789963757319009e-02 -2.3769859803657253e-02 0.0000000000000000e+00  -1.7957397012243317e-02 -1.1830657377137486e-02 0.0000000000000000e+00  -1.2945938138286987e-02 -1.6791484151607729e-02 0.0000000000000000e+00  -2.4096516842784792e-02 -1.6790928530791630e-02 0.0000000000000000e+00  -1.7957645442241779e-02 -2.2935510280699692e-02 0.0000000000000000e+00  -2.0587394540117279e-02 -1.1715029510199126e-02 0.0000000000000000e+00  -1.3958352841928735e-02 -1.1256819940349490e-02 0.0000000000000000e+00  -2.7824979652577839e-02 -2.6913631761444585e-02 0.0000000000000000e+00  -1.7919657765748165e-02 -2.5745891841467611e-02 0.0000000000000000e+00  -1.7919767325758507e-02 -1.4626685964150957e-02 0.0000000000000000e+00  -1.7957397012243317e-02 -1.1830657377137486e-02 0.0000000000000000e+00  -1.7957645442241779e-02 -2.2935510280699692e-02 0.0000000000000000e+00  -1.5601689841980673e-02 -1.6753864269563341e-02 0.0000000000000000e+00  -2.6763736212578475e-02 -1.6753116976365754e-02 0.0000000000000000e+00  -1.5601689841980673e-02 -1.6753864269563341e-02 0.0000000000000000e+00  -1.7919767325758507e-02 -1.4626685964150957e-02 0.0000000000000000e+00  -1.2945938138286987e-02 -1.6791484151607729e-02 0.0000000000000000e+00  -2.4096516842784792e-02 -1.6790928530791630e-02 0.0000000000000000e+00  -1.7919657765748165e-02 -2.5745891841467611e-02 0.0000000000000000e+00  -2.6763736212578475e-02 -1.6753116976365754e-02 0.0000000000000000e+00  -1.3070289961141384e-02 -1.1886470905330244e-02 0.0000000000000000e+00  -2.3892293107347987e-02 -2.2331785341575441e-02 0.0000000000000000e+00  -2.7901772110046935e-02 -1.6827351430385301e-02 0.0000000000000000e+00  -2.7934325583058594e-02 -1.0858684234248760e-02 0.0000000000000000e+00  -2.5215074021784467e-02 -1.0960821450241380e-02 0.0000000000000000e+00  -2.3487021955422155e-02 -1.1104792212269104e-02 0.0000000000000000e+00  -1.2297272871608598e-02 -2.5009073422541012e-02 0.0000000000000000e+00  -1.6370055454556214e-02 -2.6508166300368743e-02 0.0000000000000000e+00  -2.6423590413724055e-02 -2.0760388024291976e-02 0.0000000000000000e+00  -1.7927876130907516e-02 -2.4161460934332867e-02 0.0000000000000000e+00  -1.2438600138791727e-02 -2.5049477737279179e-02 0.0000000000000000e+00  -2.6354737029814671e-02 -1.8636550801540887e-02 0.0000000000000000e+00  -2.7806682727919411e-02 -1.3150026834054092e-02 0.0000000000000000e+00  -1.1856388610592137e-02 -1.3141494376115215e-02 0.0000000000000000e+00  -1.4091441066581011e-02 -1.0704500856987919e-02 0.0000000000000000e+00  -1.1828090921459467e-02 -1.1397391509317961e-02 0.0000000000000000e+00  -2.7236397594901037e-02 -2.1495691127705132e-02 0.0000000000000000e+00  -2.3403714813989625e-02 -2.2239197550643276e-02 0.0000000000000000e+00  -2.3082587072020756e-02 -2.6599579534967912e-02 0.0000000000000000e+00  -1.4314646529763943e-02 -2.3623792059205107e-02 0.0000000000000000e+00  -1.4015911969451709e-02 -1.2882537009441981e-02 0.0000000000000000e+00  -1.1735963758922214e-02 -1.8833396533467283e-02 0.0000000000000000e+00  -2.2971313362490954e-02 -2.6589514729243049e-02 0.0000000000000000e+00  -1.5069675161618964e-02 -2.6241242064312123e-02 0.0000000000000000e+00  -1.1717084983829073e-02 -2.6534348247032952e-02 0.0000000000000000e+00  -1.4731061518679823e-02 -2.5272129997721091e-02 0.0000000000000000e+00  -1.3950922224346823e-02 -2.1401755096391199e-02 0.0000000000000000e+00  -2.7060066591202220e-02 -1.0792021981821930e-02 0.0000000000000000e+00  -2.6406623752903060e-02 -1.3586968523518152e-02 0.0000000000000000e+00  -2.2574793992406649e-02 -1.2803982498460726e-02 0.0000000000000000e+00  -1.1832482419227896e-02 -2.0337021526174493e-02 0.0000000000000000e+00  -2.7379257751901125e-02 -1.4225193611432920e-02 0.0000000000000000e+00  -1.2405118357375022e-02 -2.1168192007259369e-02 0.0000000000000000e+00  -2.7971058867533323e-02 -2.5877889563699897e-02 0.0000000000000000e+00  -1.8568906536801898e-02 -2.0054232063055375e-02 0.0000000000000000e+00  -2.1224640521368441e-02 -1.7605426913052367e-02 0.0000000000000000e+00  -2.4610413193924520e-02 -1.3774924863340135e-02 0.0000000000000000e+00  -2.4617202325266156e-02 -2.0049927274339990e-02 0.0000000000000000e+00  -2.1192306394180498e-02 -1.0756793205500353e-02 0.0000000000000000e+00  -2.7939911698088359e-02 -2.5569383228081829e-02 0.0000000000000000e+00  -2.7197858161276869e-02 -2.5717000061137699e-02 0.0000000000000000e+00  -2.2284599220232810e-02 -2.4594384759264756e-02 0.0000000000000000e+00  -1.1713803909884737e-02 -2.6510335708726279e-02 0.0000000000000000e+00  -1.2105052420902379e-02 -1.1575457474055190e-02 0.0000000000000000e+00  -1.3281680171085086e-02 -1.6761664923350267e-02 0.0000000000000000e+00  -1.6473231462049300e-02 -1.0685861227642148e-02 0.0000000000000000e+00  -2.6293161493489894e-02 -2.4468713810158634e-02 0.0000000000000000e+00  -1.7927556758303674e-02 -2.6807160380498088e-02 0.0000000000000000e+00  -2.7322923128322130e-02 -1.0650996897974052e-02 0.0000000000000000e+00  -1.8569257781676288e-02 -1.6748383369384157e-02 0.0000000000000000e+00  -1.7041515200837139e-02 -1.3327626120538984e-02 0.0000000000000000e+00  -2.1179361243804012e-02 -1.3347142443504521e-02 0.0000000000000000e+00  -1.3996116646974106e-02 -1.3836859436091184e-02 0.0000000000000000e+00  -1.2671123373370192e-02 -1.8092878688625812e-02 0.0000000000000000e+00  -1.7622585840332362e-02 -1.9554911261961037e-02 0.0000000000000000e+00  -1.8925693776952954e-02 -2.4919193621259307e-02 0.0000000000000000e+00  -2.6201039641780038e-02 -2.6840503157185294e-02 0.0000000000000000e+00  -2.3991530612280893e-02 -2.6724537736070267e-02 0.0000000000000000e+00  -2.2702013919780932e-02 -1.0689867837547886e-02 0.0000000000000000e+00  -2.1226215189052874e-02 -1.2794382170313069e-02 0.0000000000000000e+00  -1.7947765141195230e-02 -2.5285806364595310e-02 0.0000000000000000e+00  -2.2447485883219920e-02 -1.6777816178066316e-02 0.0000000000000000e+00  -1.2089406537557523e-02 -2.1917510724002161e-02 0.0000000000000000e+00  -2.1126474276885639e-02 -1.6797908776627339e-02 0.0000000000000000e+00  -2.6006216199000103e-02 -1.2139855789846648e-02 0.0000000000000000e+00  -2.6941855065660797e-02 -1.2244735430616820e-02 0.0000000000000000e+00  -1.3028180984608959e-02 -1.0718396810711003e-02 0.0000000000000000e+00  -1.7914623565784167e-02 -2.3623497402251885e-02 0.0000000000000000e+00  -2.1828047297270024e-02 -2.5036282174711901e-02 0.0000000000000000e+00  -1.4459633177059585e-02 -2.6124122365196758e-02 0.0000000000000000e+00  -1.1866285644215503e-02 -1.3084126481676698e-02 0.0000000000000000e+00  -2.7161300611365919e-02 -2.6702624570668135e-02 0.0000000000000000e+00  -1.4565539597670698e-02 -2.6770106876967740e-02 0.0000000000000000e+00  -1.2345939987537672e-02 -2.5586078879102671e-02 0.0000000000000000e+00  -2.7886126826256349e-02 -2.0688646074825786e-02 0.0000000000000000e+00  -1.3060439907416191e-02 -1.3433234635965406e-02 0.0000000000000000e+00  -2.7345446595992539e-02 -2.3616725604290314e-02 0.0000000000000000e+00  -1.6699549396404216e-02 -1.2286735991695647e-02 0.0000000000000000e+00  -1.4495585727178085e-02 -1.4106140992779369e-02 0.0000000000000000e+00  -1.2865231045161572e-02 -2.0894306536912457e-02 0.0000000000000000e+00  -1.7914604584721289e-02 -1.7605933404306672e-02 0.0000000000000000e+00  -1.4991695183346920e-02 -1.9261241365071690e-02 0.0000000000000000e+00  -2.7969577438567858e-02 -1.9938957570951397e-02 0.0000000000000000e+00  -2.7043195273647843e-02 -2.0444334680581554e-02 0.0000000000000000e+00  -1.7964344022060767e-02 -1.9954947826729783e-02 0.0000000000000000e+00  -2.6598271768472750e-02 -1.7020028625348266e-02 0.0000000000000000e+00  -2.1321622915624071e-02 -2.6627599741542343e-02 0.0000000000000000e+00  -2.7726377272989721e-02 -1.2286578268391491e-02 0.0000000000000000e+00  -1.1739020477472035e-02 -2.3115298392939916e-02 0.0000000000000000e+00  -1.4404465462598902e-02 -2.4300509541349841e-02 0.0000000000000000e+00  -1.2524206994287376e-02 -1.1583510585009288e-02 0.0000000000000000e+00  -1.7927710386346947e-02 -1.2281144101417476e-02 0.0000000000000000e+00  -2.1712126023597296e-02 -2.4922314710473879e-02 0.0000000000000000e+00  -1.4961004830719883e-02 -1.7544141504520383e-02 0.0000000000000000e+00  -2.4400280057204200e-02 -2.2591292722354314e-02 0.0000000000000000e+00  -1.4262739115833947e-02 -2.5399634160953855e-02 0.0000000000000000e+00  -1.2778222343956992e-02 -2.6160937610386868e-02 0.0000000000000000e+00  -1.7927556758303674e-02 -2.6807160380498088e-02 0.0000000000000000e+00  -1.9632465977976608e-02 -2.6734531448808250e-02 0.0000000000000000e+00  -2.5444024334651962e-02 -1.9854594047014926e-02 0.0000000000000000e+00  -2.7753593482673020e-02 -1.9305870488148164e-02 0.0000000000000000e+00  -2.6265038727232456e-02 -2.3671406945077151e-02 0.0000000000000000e+00  -1.4419939823877317e-02 -2.0054504739621670e-02 0.0000000000000000e+00  -2.7826527945976200e-02 -1.3773666045801667e-02 0.0000000000000000e+00  -1.7964409676326443e-02 -1.3949740295343502e-02 0.0000000000000000e+00  -2.1126474276885639e-02 -1.6797908776627339e-02 0.0000000000000000e+00  -1.5095968146145604e-02 -1.6798454077547282e-02 0.0000000000000000e+00  -1.7964344022060767e-02 -1.9954947826729783e-02 0.0000000000000000e+00  -2.1583365529156115e-02 -1.3773308945289570e-02 0.0000000000000000e+00  -2.3747031774594037e-02 -1.1717519832104169e-02 0.0000000000000000e+00  -1.7379695341556485e-02 -1.1394438608533135e-02 0.0000000000000000e+00  -1.2485212997953085e-02 -1.0812184265204340e-02 0.0000000000000000e+00  -1.5011910193625584e-02 -1.1137052875879466e-02 0.0000000000000000e+00  -2.7907580591308906e-02 -2.6808169714896812e-02 0.0000000000000000e+00  -1.7964409676326443e-02 -1.3949740295343502e-02 0.0000000000000000e+00  -1.5095968146145604e-02 -1.6798454077547282e-02 0.0000000000000000e+00  -2.7660322627563304e-02 -2.4123648556400163e-02 0.0000000000000000e+00  -1.2600185193170849e-02 -1.2331062383334529e-02 0.0000000000000000e+00  -1.1899743266632595e-02 -1.5868027850358606e-02 0.0000000000000000e+00  -1.9501207384761490e-02 -1.0730461591596010e-02 0.0000000000000000e+00  -2.2850069710416823e-02 -1.1622913390075712e-02 0.0000000000000000e+00  -2.4719991671729544e-02 -1.8677415704012854e-02 0.0000000000000000e+00  -2.1174632369467539e-02 -2.0862792890496897e-02 0.0000000000000000e+00  -2.1735912108371998e-02 -1.9911551119998365e-02 0.0000000000000000e+00  -1.7927710386346947e-02 -1.2281144101417476e-02 0.0000000000000000e+00  -1.7947725011817330e-02 -1.0767927695414769e-02 0.0000000000000000e+00  -2.4610803739823880e-02 -1.6748268166539911e-02 0.0000000000000000e+00  -1.7914604584721289e-02 -1.7605933404306672e-02 0.0000000000000000e+00  -1.3281680171085086e-02 -1.6761664923350267e-02 0.0000000000000000e+00  -1.8569257781676288e-02 -1.6748383369384157e-02 0.0000000000000000e+00  -1.1844912035274057e-02 -1.6781693988409348e-02 0.0000000000000000e+00  -1.7947765141195230e-02 -2.5285806364595310e-02 0.0000000000000000e+00  -1.7914623565784167e-02 -2.3623497402251885e-02 0.0000000000000000e+00  -1.7947725011817330e-02 -1.0767927695414769e-02 0.0000000000000000e+00  -1.1844912035274057e-02 -1.6781693988409348e-02 0.0000000000000000e+00  -2.4610803739823880e-02 -1.6748268166539911e-02 0.0000000000000000e+00  -2.7864365399373901e-02 -1.6760977654435804e-02 0.0000000000000000e+00  -2.6420256944795537e-02 -1.6781339423472340e-02 0.0000000000000000e+00  -2.7864365399373901e-02 -1.6760977654435804e-02 0.0000000000000000e+00  -2.6420256944795537e-02 -1.6781339423472340e-02 0.0000000000000000e+00  -2.7657162855815858e-02 -2.5173732140008887e-02 0.0000000000000000e+00  -2.3945240452641254e-02 -1.9156930227967262e-02 0.0000000000000000e+00  -2.6731164711437331e-02 -1.3930046821793116e-02 0.0000000000000000e+00  -2.1207668195021068e-02 -2.0035718234532613e-02 0.0000000000000000e+00  -2.7570617043598984e-02 -1.1098602488609995e-02 0.0000000000000000e+00  -2.7939742368512554e-02 -1.0722459254522672e-02 0.0000000000000000e+00  -2.7248602610113609e-02 -1.1054373844230672e-02 0.0000000000000000e+00  -1.5204951650460112e-02 -1.1347476823696839e-02 0.0000000000000000e+00  -1.1913901834111664e-02 -1.3992669177020625e-02 0.0000000000000000e+00  -2.7493846801557600e-02 -1.2105948400901356e-02 0.0000000000000000e+00  -2.4384155648601625e-02 -2.5483128288163692e-02 0.0000000000000000e+00  -1.6957598403530384e-02 -2.6852626480664568e-02 0.0000000000000000e+00  -2.0017862976894320e-02 -2.2660230923756536e-02 0.0000000000000000e+00  -2.6852008894564197e-02 -2.6759180705518783e-02 0.0000000000000000e+00  -1.1912059434041123e-02 -1.0706929198816344e-02 0.0000000000000000e+00  -1.1713713903742182e-02 -2.5228917761690853e-02 0.0000000000000000e+00  -1.1720806120804735e-02 -2.5063824850209995e-02 0.0000000000000000e+00  -2.4301209201588920e-02 -2.5487649861427129e-02 0.0000000000000000e+00  -1.4496539875778560e-02 -2.6866990792880813e-02 0.0000000000000000e+00  -2.3885251313196666e-02 -1.0666612517578083e-02 0.0000000000000000e+00  -1.3336871732780822e-02 -2.3364753180275862e-02 0.0000000000000000e+00  -1.2140974179155608e-02 -2.6454513065238879e-02 0.0000000000000000e+00  -2.0838888977696528e-02 -1.0857550128989648e-02 0.0000000000000000e+00  -2.7504429725784780e-02 -2.6597840866950634e-02 0.0000000000000000e+00  -2.3865343525236185e-02 -1.2500012155311442e-02 0.0000000000000000e+00  -2.4540961283836267e-02 -2.4974597346558262e-02 0.0000000000000000e+00  -2.5208681864875224e-02 -1.0686459576097280e-02 0.0000000000000000e+00  -2.5159260923521304e-02 -1.2200895995410337e-02 0.0000000000000000e+00  -1.2749940736376043e-02 -1.3720479202447358e-02 0.0000000000000000e+00  -1.3710246904218175e-02 -2.6577653420328789e-02 0.0000000000000000e+00  -2.0227347425917724e-02 -1.8477554915017229e-02 0.0000000000000000e+00  -2.5741588186177153e-02 -2.2609944377717500e-02 0.0000000000000000e+00  -2.0741462851972491e-02 -2.2655443851732598e-02 0.0000000000000000e+00  -2.6893621173470696e-02 -1.4289732470501117e-02 0.0000000000000000e+00  -2.7942190182078767e-02 -2.6793590297945622e-02 0.0000000000000000e+00  -2.0690646264436167e-02 -1.4979371805544128e-02 0.0000000000000000e+00  -1.5488990074258122e-02 -1.6447513125025397e-02 0.0000000000000000e+00  -2.7965836120705329e-02 -2.3145699419382906e-02 0.0000000000000000e+00  -1.2300905409974265e-02 -2.6414926152213355e-02 0.0000000000000000e+00  -2.5853942382423112e-02 -2.2228123214522784e-02 0.0000000000000000e+00  -2.5853350183784585e-02 -2.6910874387958934e-02 0.0000000000000000e+00  -2.7374648485598754e-02 -1.6784662944060686e-02 0.0000000000000000e+00  -2.7900383231494227e-02 -1.4271219694481413e-02 0.0000000000000000e+00  -1.9865866419432006e-02 -2.5559543904405391e-02 0.0000000000000000e+00  -1.5972913714825464e-02 -2.2740722305991962e-02 0.0000000000000000e+00  -1.9142505487728022e-02 -2.1938519169307884e-02 0.0000000000000000e+00  -1.1950364029571245e-02 -1.1487983224287027e-02 0.0000000000000000e+00  -2.6019858415484095e-02 -1.5990456216446583e-02 0.0000000000000000e+00  -2.7892858634023694e-02 -2.6352373582512970e-02 0.0000000000000000e+00  -2.0084002987487186e-02 -1.5475609470972809e-02 0.0000000000000000e+00  -2.1618883365133224e-02 -2.5530888834274224e-02 0.0000000000000000e+00  -2.6713725689848172e-02 -2.1314996330189552e-02 0.0000000000000000e+00  -2.0500241954268011e-02 -2.6268601898466592e-02 0.0000000000000000e+00  -2.0234715600976755e-02 -2.6887472255720635e-02 0.0000000000000000e+00  -1.2507052129256964e-02 -1.0997935973559346e-02 0.0000000000000000e+00  -1.7266048015657093e-02 -2.5789858752057693e-02 0.0000000000000000e+00  -1.1806677933684971e-02 -1.1581702703145316e-02 0.0000000000000000e+00  -1.2255183269132986e-02 -1.4832527730395785e-02 0.0000000000000000e+00  -1.6453343667258653e-02 -2.5315791657979460e-02 0.0000000000000000e+00  -2.5604340119654762e-02 -1.1007855899315612e-02 0.0000000000000000e+00  -2.2121185821354774e-02 -2.6199650587479313e-02 0.0000000000000000e+00  -1.4810826699593700e-02 -1.4322209748962068e-02 0.0000000000000000e+00  -2.3319304089988849e-02 -2.6897121908471617e-02 0.0000000000000000e+00  -1.5627295169423166e-02 -2.1764779002999082e-02 0.0000000000000000e+00  -1.5768907987095491e-02 -2.5012599044479972e-02 0.0000000000000000e+00  -1.2733819215043084e-02 -2.3250533248040047e-02 0.0000000000000000e+00  -1.7342669451391058e-02 -1.1080499690429856e-02 0.0000000000000000e+00  -1.2947307947324006e-02 -2.3304330004943564e-02 0.0000000000000000e+00  -1.3484717786670323e-02 -1.6007787157033472e-02 0.0000000000000000e+00  -2.7355026943196682e-02 -1.9038916893425462e-02 0.0000000000000000e+00  -2.3206869749259316e-02 -1.1284136234503148e-02 0.0000000000000000e+00  -2.0645677032107478e-02 -1.1587562600035888e-02 0.0000000000000000e+00  -2.5155656233553855e-02 -2.6533934948407351e-02 0.0000000000000000e+00  -2.1691308926175858e-02 -2.6901770358899405e-02 0.0000000000000000e+00  -1.6042489112653300e-02 -1.0698342320258729e-02 0.0000000000000000e+00  -1.2661586785194533e