<?xml version="1.0"?>
<VTKFile type="UnstructuredGrid"  version="0.1"  >
<UnstructuredGrid>
<Piece  NumberOfPoints="1380" NumberOfCells="2630">
<Points>
<DataArray  type="Float64"  NumberOfComponents="3"  format="ascii">-1 -1 0  1 -1 0  1 1 0  -1 1 0  0 -1 0  1 0 0  0 1 0  -1 0 0  0 0 0  -1 -0.5 0  -0.5 -1 0  -0.5 1 0  -1 0.5 0  1 -0.5 0  0.5 -1 0  1 0.5 0  0.5 1 0  0.4166666666666666 -0.4166666666666667 0  -0.4166666666666667 0.4166666666666667 0  -0.25 -0.5 0  0.5 0.25 0  -0.4861111111111112 -0.06944444444444445 0  0.0732758620689655 0.507183908045977 0  -0.625 -0.625 0  0.625 0.625 0  0.7380952380952381 -0.25 0  -0.7099116161616161 0.2105429292929293 0  -0.25 0.7380952380952381 0  0.105392156862745 -0.6348039215686275 0  0.6770833333333334 -0.6770833333333333 0  -0.6770833333333334 0.6770833333333334 0  0.3472222222222222 -0.06944444444444446 0  -0.7264957264957265 -0.3044871794871795 0  0.3141940982507127 0.7297313660835709 0  0.02049587951122483 -0.3227479397556124 0  -0.2690972222222223 0.1475694444444444 0  0.3859500089908372 -0.7274430156831472 0  -0.2228477945123298 -0.1761765495248019 0  0.2182539682539683 0.1884920634920635 0  0.75 0.375 0  -0.145442219440968 -0.7602211097204841 0  0.7088913690476191 0.0427827380952381 0  -0.75 -1 0  -1 -0.75 0  1 0.75 0  0.75 1 0  -0.7439982703698937 -0.04614153195464455 0  -0.4609235096577606 -0.3356498099556895 0  0.4063134471431929 0.4895621842856023 0  0.25 -1 0  -0.25 -1 0  -0.75 1 0  0.75 -1 0  -1 -0.25 0  -1 0.25 0  1 -0.25 0  -0.25 1 0  1 -0.75 0  -1 0.75 0  0.25 1 0  1 0.25 0  -0.4041423272138783 -0.7597141090712928 0  0.06500839607911253 0.7578103030529481 0  -0.1572801182352047 0.3838997021864289 0  -0.6528005242053915 0.4409494757946086 0  -0.4930160984848485 0.1544744318181818 0  -0.4732142857142858 0.7752976190476191 0  0.6398809523809523 -0.4538690476190476 0  0.5166054117396399 -0.2161233620965164 0  -0.002273787244753427 0.2232363985975174 0  0.1500564496765022 -0.1524955293952667 0  0.2016720420046758 -0.4410343282803009 0  -0.08495178036419618 0.6274139771124571 0  -0.8367311471133162 0.3642591720794645 0  -0.8333333333333334 -0.625 0  -0.594323836800685 -0.8231079456002283 0  -0.4466957714776065 -0.5349126855671806 0  0.8125 0.5625 0  0.78125 0.78125 0  0.5091392650016769 0.7947130883338923 0  0.125 -0.8382681931833136 0  -0.8184523809523809 -0.8184523809523809 0  -0.07781530426104531 -0.5819319697006881 0  0.5085055196703295 0.04967610411902112 0  0.2918471072074933 -0.276017202318847 0  0.5120763537765269 -0.5898771553229597 0  0.625 -0.8585349462365591 0  0.8158532234335381 -0.8158532234335381 0  -0.5198088446315396 0.5739411553684605 0  -0.8585349462365591 0.625 0  -0.8150493805516597 0.8156205699829586 0  0.8585349462365591 -0.625 0  -0.2688268348649726 0.5439331383603209 0  0.8242100426758139 -0.4436043596336612 0  0.5833756314287952 0.4479378157143976 0  0.8690476190476191 -0.125 0  -0.125 0.8690476190476191 0  -0.8692745600729823 0.125 0  0.8696725120759167 0.125 0  -0.625 0.8711516477451908 0  0.2339522463269718 0.3879558377955778 0  0.2453709502295031 0.5655822922838026 0  0.1730610651637797 0.02021709580868947 0  0.3245402594056757 -0.5644672020485209 0  -0.7291666666666666 -0.4816595441595442 0  -1 -0.375 0  -0.5811140848639904 -0.2127276307675001 0  0.673332592838314 0.2158348143233718 0  0.375 1 0  -0.5714768890989919 0.2985103444040069 0  -1 -0.125 0  -0.8453692574786325 -0.1875 0  -0.3144549134065865 -0.02408675326008025 0  -0.2898414972096258 -0.3336092734780093 0  -0.1075052092206287 -0.4224330421314983 0  -0.05043970703604117 -0.1652278959397459 0  0.6459672950297897 -0.1113415301525317 0  0.4645210271029513 0.6398480556579343 0  0.3512863754411909 0.0937979496253573 0  -0.6063160985568274 0.03891469652249891 0  -0.3428819444444445 0.8690476190476191 0  0.625 1 0  -0.1602164796159982 0.02697860906625157 0  0.04648110064133829 -0.4808416424239687 0  1 0.875 0  -0.3836102479201657 0.6484936449177356 0  -0.3776011723096096 0.263078478984336 0  -0.6024978259969829 -0.3949628096211138 0  0.125 1 0  0.2010781308272777 0.8456221018461906 0  0.2822509696388829 -0.845902544691141 0  -0.3285533674953515 -0.6289773550938936 0  0.3461306793221754 0.278777492464833 0  0.4737475672408696 -0.8508448959534423 0  0.2384632828836344 -0.7029523187242811 0  -0.004777287059791593 0.3759269695907358 0  -0.8499735021850066 -0.3912320205328522 0  0.1222536293721587 0.2963971539625205 0  -0.3769456520999688 -0.203572526805711 0  -0.2749617205755651 -0.8464290792698902 0  0.004805888512766143 -0.747174355248311 0  -0.125 -1 0  -0.06001061822252458 -0.8724007765244854 0  0.875 0.4375 0  0.854421179608893 0.271342359217786 0  0.875 1 0  -0.1499861095763589 0.2358309656934888 0  0.3381943639137225 0.8663061796405532 0  -0.7853090110442228 0.4998412775277108 0  0.7398165998560814 -0.5535192694951373 0  0.1580042122341573 -0.3100246140259917 0  -0.7291666666666667 -0.7142857142857142 0  -0.375 -1 0  0.6483368386154684 0.8514905990110488 0  -0.1295370103291928 -0.2826118305021242 0  0.07458201853700455 0.1123894386563915 0  0.6146465857036327 -0.3161203659316075 0  0.5551898493894731 -0.740296118159085 0  0.375 -1 0  0.482702798370208 -0.084133350091034 0  0.87890625 0.68359375 0  -0.05917195534525846 0.4971092425697621 0  0.1260710309213975 0.6343750312956699 0  0.8690476190476191 -0.3077066815262848 0  -0.2912010232560567 0.3668168386732139 0  -0.875 1 0  -1 0.875 0  1 -0.875 0  0.875 -1 0  -0.8689564281364567 -0.006189266075306407 0  -0.7449425635110547 0.08458938160051771 0  -0.7150266761936593 -0.1739444581417552 0  -0.5260034831318311 -0.711099823962112 0  -0.4724626808827322 -0.871722230709409 0  0.4734436795977052 0.377714794132168 0  -0.875 -1 0  -1 -0.875 0  0.6927189078571988 0.5156567235715964 0  -0.3742497615796874 -0.4296005251260107 0  -0.1969436423297711 -0.6387157229772615 0  -0.6179496409766825 -0.08933356056510935 0  -0.424405057115988 0.04452428810878029 0  -0.08479048335844169 0.1279607007132633 0  0.003830300099055113 0.8712085230656206 0  0.8748778838820267 -1.379218479898026e-05 0  -0.375 1 0  -0.625 1 0  1 0.125 0  -0.125 1 0  1 -0.375 0  1 -0.125 0  1 -0.625 0  0.625 -1 0  0.125 -1 0  -0.625 -1 0  -1 -0.625 0  -1 0.125 0  -1 0.375 0  -1 0.625 0  1 0.375 0  1 0.625 0  0.6325660748712082 0.3335187599557389 0  -0.06420945895056573 0.7549874027425891 0  -0.8769015540914771 0.2478802253893416 0  0.871875 0.871875 0  -0.6868091492840067 0.3270978624973681 0  -0.5363597469565949 0.412994850055505 0  -0.6803734992638302 0.5574295000651103 0  -0.7076253581162534 -0.8803439094224437 0  -0.8778089002295137 -0.5106896447504627 0  -0.3860184984222981 0.530566778071246 0  0.6109900617121508 0.1128453077697081 0  0.3896945134930274 -0.1915382873255086 0  0.7605656944697778 -0.06822134873122943 0  0.3576151269893478 0.5948388411612135 0  -0.5689902680792265 -0.5143596830118065 0  0.6262446286847614 -0.5735657901943212 0  0.2030558252325225 -0.5625263842513452 0  0.6123273142928579 0.7407533260723429 0  0.4016460890123554 -0.3042863223111857 0  -0.59039693199147 0.7578418819188018 0  0.7276932493917544 -0.3705808024528924 0  0.5222536818742854 -0.4713886230400014 0  -0.5101986527137737 0.8848365765607674 0  0.510560172809238 0.5356013299918891 0  -0.3603569195756083 0.75823710606415 0  0.1967279277813232 0.728226870058472 0  -0.6086880986371127 0.1545624071548516 0  -0.38105366729386 0.1511189987807864 0  -0.2944659463671584 -0.7359061804869591 0  0.5060729154966499 -0.3475227845833823 0  -0.09281616240412746 -0.06197858250969457 0  0.7649739583333334 0.6673177083333334 0  0.7628906249999999 0.890234375 0  -0.2666864184909611 0.2585504071132311 0  0.3635064892129658 0.3878003602709461 0  -0.2339409722222222 0.8901937905844155 0  -0.1718792125974916 -0.8957733325456778 0  0.1001768566329531 0.4023510017391879 0  0.3120260172693757 -0.4540546875576884 0  0.7804062804433681 0.1896628610854537 0  0.4087715451998049 0.187961780041608 0  -0.1584963477271457 0.5451611892421655 0  -0.8926817849258324 0.463022006336401 0  0.2338091473445219 -0.07576267331277289 0  0.08171112182813692 -0.2349087687359925 0  0.04635385178956847 -0.1044635073718474 0  -0.4377391632114205 -0.6448874471423088 0  -0.1907678351227189 0.6480215912813945 0  0.300605946475244 0.4741444604171038 0  -0.2145033720757486 -0.06751709909419711 0  0.6069191921170397 -0.005492331448357812 0  0.0214718770761248 0.6032397936031719 0  0.5476675683364878 0.8992752415326501 0  0.4387475014316537 0.9093708953002239 0  -0.4932997685306436 -0.4381009159993523 0  0.2515197695339056 -0.1791673369138964 0  -0.7291666666666667 -0.6088789682539681 0  -0.9166666666666667 -0.6875 0  0.620579540363709 -0.2122431523583302 0  -0.484950136419973 0.6719440339397442 0  0.2857044415400258 0.0137589173127316 0  -0.8945708364098356 -0.288306105327986 0  0.4043102720140535 0.7842914560451557 0  0.04123256238752064 -0.9026968245801402 0  0.2003676884403109 -0.9091888601740487 0  0.1068775558538842 -0.7373377130403223 0  -0.4804566783514427 -0.1763307203045643 0  0.108286342087769 -0.3993789328997278 0  -0.191883080105361 -0.3640821726430649 0  -0.07025064492006244 0.2984876656890053 0  -0.7039324641409584 0.788312126296613 0  -0.7311286585775438 0.8932502354831682 0  0.5171409396884947 0.1503852691889257 0  0.4229392823658633 -0.003216522184234835 0  -0.5621736087218259 -0.919558629836806 0  -0.626474064879544 -0.7266572613636506 0  0.2446828746617422 0.2867616783302419 0  0.1759429608742923 0.4776611759306416 0  -0.3468240303741654 -0.5260416435617549 0  -0.7465808808425306 0.4069574477998361 0  -0.7819962170660292 0.2802441065650652 0  -0.3742623214119594 -0.8547800509641984 0  0.1014498009713561 0.8506721983266377 0  0.4285217620918213 -0.5230190595570253 0  0.4091738370487775 -0.6256346204225141 0  0.78125 0.46875 0  0.90625 0.53125 0  -0.4791801348852565 0.2553992655702126 0  0.7843318610782772 -0.7086046956885941 0  0.8909728264971901 -0.7355183796514634 0  0.7041908166528879 -0.7830649143180282 0  0.7311821352
[...]
<PointData  Vectors="f_22"> 
<DataArray  type="Float64"  Name="f_22"  NumberOfComponents="3" format="ascii">-2.7807888639947540e-03 -2.8289072866906190e-03 0.0000000000000000e+00  -2.7807888639947540e-03 -2.8289072866906190e-03 0.0000000000000000e+00  -2.7807888639947540e-03 -2.8289072866906190e-03 0.0000000000000000e+00  -2.7807888639947540e-03 -2.8289072866906190e-03 0.0000000000000000e+00  -2.7802129121720083e-03 -2.9754414914735100e-03 0.0000000000000000e+00  -2.9395849078493221e-03 -2.8281946791528590e-03 0.0000000000000000e+00  -2.7802129121720083e-03 -2.9754414914735100e-03 0.0000000000000000e+00  -2.9395849078493221e-03 -2.8281946791528590e-03 0.0000000000000000e+00  -2.9401142205269168e-03 -2.9761654938472194e-03 0.0000000000000000e+00  -1.3708869903695227e-03 -2.8285131649811281e-03 0.0000000000000000e+00  -2.7804957795725888e-03 -1.4130225832237491e-03 0.0000000000000000e+00  -2.7804957795725888e-03 -1.4130225832237491e-03 0.0000000000000000e+00  -4.3495038783871618e-03 -2.8284860064256897e-03 0.0000000000000000e+00  -1.3708869903695227e-03 -2.8285131649811281e-03 0.0000000000000000e+00  -2.7804445061043832e-03 -4.3914142322540560e-03 0.0000000000000000e+00  -4.3495038783871618e-03 -2.8284860064256897e-03 0.0000000000000000e+00  -2.7804445061043832e-03 -4.3914142322540560e-03 0.0000000000000000e+00  -1.4419724199309873e-03 -4.3594847714231513e-03 0.0000000000000000e+00  -4.3190485684724087e-03 -1.4825826760717586e-03 0.0000000000000000e+00  -1.3711578368646089e-03 -1.9014114935328311e-03 0.0000000000000000e+00  -3.9698408529548626e-03 -4.3915865252048530e-03 0.0000000000000000e+00  -2.6157326535388189e-03 -1.4177150958552941e-03 0.0000000000000000e+00  -4.3473630523135944e-03 -3.3137855512143611e-03 0.0000000000000000e+00  -1.4541466797724513e-03 -1.4985256113592121e-03 0.0000000000000000e+00  -4.2059413742181716e-03 -4.2501254920117061e-03 0.0000000000000000e+00  -1.8631376236734199e-03 -3.9433810503957381e-03 0.0000000000000000e+00  -3.8376048428238594e-03 -1.6798403477179579e-03 0.0000000000000000e+00  -3.8973437132773384e-03 -1.9009572836600019e-03 0.0000000000000000e+00  -1.4695178077589357e-03 -3.4557231789883445e-03 0.0000000000000000e+00  -1.5532429505084203e-03 -4.1277599344225991e-03 0.0000000000000000e+00  -4.0826029876187024e-03 -1.5986068845286832e-03 0.0000000000000000e+00  -2.6157472824599099e-03 -4.2572509389458288e-03 0.0000000000000000e+00  -1.6891008847301958e-03 -1.7263732366563334e-03 0.0000000000000000e+00  -3.9256274009662378e-03 -4.1854498561403270e-03 0.0000000000000000e+00  -1.6381020236888178e-03 -3.0716844035097784e-03 0.0000000000000000e+00  -3.5975011082454893e-03 -1.8369125628113431e-03 0.0000000000000000e+00  -1.6826298412258563e-03 -4.3223961039052603e-03 0.0000000000000000e+00  -2.1454049784537790e-03 -1.9993446682108934e-03 0.0000000000000000e+00  -3.7578622743329403e-03 -3.9024553928462256e-03 0.0000000000000000e+00  -4.2667713463002887e-03 -3.9032623615479788e-03 0.0000000000000000e+00  -1.7833054387747171e-03 -2.3111604241798497e-03 0.0000000000000000e+00  -3.1385813008792990e-03 -4.0369070957255891e-03 0.0000000000000000e+00  -2.7806697699026182e-03 -1.7974322450451069e-03 0.0000000000000000e+00  -1.7510114535639527e-03 -2.8287833359991786e-03 0.0000000000000000e+00  -3.8570983154308965e-03 -2.8287412480830572e-03 0.0000000000000000e+00  -2.7806782555098806e-03 -3.9033352535891149e-03 0.0000000000000000e+00  -2.7237295482303654e-03 -1.7782295952712326e-03 0.0000000000000000e+00  -1.6046501562575928e-03 -1.4334973075268997e-03 0.0000000000000000e+00  -4.3516240204612604e-03 -4.3489941470052701e-03 0.0000000000000000e+00  -2.7802791941712486e-03 -4.0070699545064073e-03 0.0000000000000000e+00  -2.7802819819532174e-03 -1.9010207042810985e-03 0.0000000000000000e+00  -2.7806697699026182e-03 -1.7974322450451069e-03 0.0000000000000000e+00  -2.7806782555098806e-03 -3.9033352535891149e-03 0.0000000000000000e+00  -1.8632076630167472e-03 -2.8283042843897689e-03 0.0000000000000000e+00  -3.9694179419210605e-03 -2.8282785262511456e-03 0.0000000000000000e+00  -1.8632076630167472e-03 -2.8283042843897689e-03 0.0000000000000000e+00  -2.7802819819532174e-03 -1.9010207042810985e-03 0.0000000000000000e+00  -1.7510114535639527e-03 -2.8287833359991786e-03 0.0000000000000000e+00  -3.8570983154308965e-03 -2.8287412480830572e-03 0.0000000000000000e+00  -2.7802791941712486e-03 -4.0070699545064073e-03 0.0000000000000000e+00  -3.9694179419210605e-03 -2.8282785262511456e-03 0.0000000000000000e+00  -1.7819306969749651e-03 -1.5019736750486196e-03 0.0000000000000000e+00  -3.8292169701021881e-03 -3.2761392893532492e-03 0.0000000000000000e+00  -4.2798785430088063e-03 -2.2607960512257439e-03 0.0000000000000000e+00  -4.3383167839870411e-03 -1.5470328558398144e-03 0.0000000000000000e+00  -3.6252792904193924e-03 -1.4148631248158796e-03 0.0000000000000000e+00  -3.7653645895157450e-03 -1.4242873842374580e-03 0.0000000000000000e+00  -1.3976844500147834e-03 -4.2182200692469215e-03 0.0000000000000000e+00  -1.9867451874915989e-03 -4.3853197700937747e-03 0.0000000000000000e+00  -3.8822133148012057e-03 -2.9655001129180306e-03 0.0000000000000000e+00  -2.2445507064039996e-03 -3.6443619634505399e-03 0.0000000000000000e+00  -1.4108930943375719e-03 -3.8431297582167388e-03 0.0000000000000000e+00  -4.2004618122503268e-03 -2.5802949069274037e-03 0.0000000000000000e+00  -4.2488275940000698e-03 -2.1069337614761296e-03 0.0000000000000000e+00  -1.4540512838470221e-03 -2.0941346163797043e-03 0.0000000000000000e+00  -2.0071121398275754e-03 -1.4566867540004116e-03 0.0000000000000000e+00  -1.3714791289740980e-03 -1.4463960294637311e-03 0.0000000000000000e+00  -4.3055715305019698e-03 -3.6684501357600444e-03 0.0000000000000000e+00  -3.7436602947560865e-03 -3.7902522406927383e-03 0.0000000000000000e+00  -3.6919840815970678e-03 -4.3888432613180921e-03 0.0000000000000000e+00  -2.0657129582769751e-03 -3.5398310116587883e-03 0.0000000000000000e+00  -1.9893432189182709e-03 -2.0365722450722615e-03 0.0000000000000000e+00  -1.3997095292861521e-03 -2.6132052896638436e-03 0.0000000000000000e+00  -3.1704792964289308e-03 -4.3889206147723521e-03 0.0000000000000000e+00  -1.7761029896067580e-03 -4.1289513207594646e-03 0.0000000000000000e+00  -1.4073316346427318e-03 -4.3872459991589679e-03 0.0000000000000000e+00  -2.1478989350740023e-03 -4.2498275776792624e-03 0.0000000000000000e+00  -1.9792700582896765e-03 -3.6548914719019897e-03 0.0000000000000000e+00  -4.2907528280458958e-03 -1.4110656902693627e-03 0.0000000000000000e+00  -4.2055697049774299e-03 -2.1954406041214142e-03 0.0000000000000000e+00  -3.6087390761471256e-03 -2.0234540007355154e-03 0.0000000000000000e+00  -1.4537466757668920e-03 -3.4758887711346682e-03 0.0000000000000000e+00  -4.3240383160622464e-03 -1.8374941018903749e-03 0.0000000000000000e+00  -1.4080260170991604e-03 -3.6204442579375910e-03 0.0000000000000000e+00  -4.3428983734328033e-03 -4.3217524134103067e-03 0.0000000000000000e+00  -2.3635467976078567e-03 -3.4298198404568662e-03 0.0000000000000000e+00  -3.3823485103245971e-03 -2.3999894964198167e-03 0.0000000000000000e+00  -3.5034280798890531e-03 -2.2397634175010893e-03 0.0000000000000000e+00  -3.5035281799168112e-03 -3.4271763636382442e-03 0.0000000000000000e+00  -3.3733599600766573e-03 -1.4982494201207306e-03 0.0000000000000000e+00  -4.2859284328059383e-03 -3.9557109710976245e-03 0.0000000000000000e+00  -4.3018670274338157e-03 -3.9928051764292110e-03 0.0000000000000000e+00  -3.0345144792575753e-03 -3.7359304028514303e-03 0.0000000000000000e+00  -1.3849851302005650e-03 -4.2091524467100620e-03 0.0000000000000000e+00  -1.3782139173653741e-03 -1.7342651992015129e-03 0.0000000000000000e+00  -1.5146261895044278e-03 -2.8283837311602910e-03 0.0000000000000000e+00  -2.0000159239802339e-03 -1.4426492332698512e-03 0.0000000000000000e+00  -3.8565398368874304e-03 -4.1378415972999046e-03 0.0000000000000000e+00  -2.7803557675637721e-03 -4.3061129713808169e-03 0.0000000000000000e+00  -4.1078037236363246e-03 -1.4337283535010086e-03 0.0000000000000000e+00  -2.3635901957019777e-03 -2.8281862351269066e-03 0.0000000000000000e+00  -2.0988731398603865e-03 -2.1415775215970333e-03 0.0000000000000000e+00  -2.8272665572682603e-03 -1.6996864253369668e-03 0.0000000000000000e+00  -1.6098806633572285e-03 -1.7714745462538489e-03 0.0000000000000000e+00  -1.4342963714607615e-03 -2.4784403744798258e-03 0.0000000000000000e+00  -2.1908445618152857e-03 -2.7402164535504587e-03 0.0000000000000000e+00  -2.4244291828852496e-03 -4.2046470203044549e-03 0.0000000000000000e+00  -4.1744201294115837e-03 -4.3905757409187368e-03 0.0000000000000000e+00  -3.3692003850862243e-03 -4.2652070707607159e-03 0.0000000000000000e+00  -3.1208085124734605e-03 -1.4710141842645839e-03 0.0000000000000000e+00  -3.3823777509197450e-03 -1.6254204181408688e-03 0.0000000000000000e+00  -2.7805335802598545e-03 -4.2499792492237806e-03 0.0000000000000000e+00  -3.0658920368986120e-03 -2.2486932014624005e-03 0.0000000000000000e+00  -1.3783582981087166e-03 -3.1917596274583762e-03 0.0000000000000000e+00  -3.3567153517703929e-03 -2.8288053691669698e-03 0.0000000000000000e+00  -4.1540897452635624e-03 -1.5375216535690622e-03 0.0000000000000000e+00  -4.0094517114717078e-03 -1.5492853352130113e-03 0.0000000000000000e+00  -1.4773461643506583e-03 -1.4664865313275776e-03 0.0000000000000000e+00  -2.7802367160059157e-03 -3.5397803719619840e-03 0.0000000000000000e+00  -3.4838758724635788e-03 -3.8408278261854562e-03 0.0000000000000000e+00  -2.0962480025956930e-03 -4.1026018312383620e-03 0.0000000000000000e+00  -1.4603338834278893e-03 -1.6617399009456002e-03 0.0000000000000000e+00  -4.0554026981540125e-03 -4.2552896383016197e-03 0.0000000000000000e+00  -2.1162919697980476e-03 -4.3922600807601003e-03 0.0000000000000000e+00  -1.6157360087085532e-03 -3.9700162920774159e-03 0.0000000000000000e+00  -4.2681476317117367e-03 -2.9536324588268791e-03 0.0000000000000000e+00  -1.4837491261534364e-03 -2.1604679232698977e-03 0.0000000000000000e+00  -4.1028854566631991e-03 -3.5288062328475175e-03 0.0000000000000000e+00  -2.0355564559197143e-03 -1.5509216348674653e-03 0.0000000000000000e+00  -2.0986484370753857e-03 -1.8176566814095039e-03 0.0000000000000000e+00  -1.7417738680148124e-03 -2.9980453387829713e-03 0.0000000000000000e+00  -2.7802185678297859e-03 -2.4000228148213995e-03 0.0000000000000000e+00  -2.2054528755003763e-03 -2.6951024763462394e-03 0.0000000000000000e+00  -4.3365056362626702e-03 -3.4040822504228263e-03 0.0000000000000000e+00  -4.0338417514047100e-03 -3.4935788828928610e-03 0.0000000000000000e+00  -2.7807267252316172e-03 -3.4043007150816608e-03 0.0000000000000000e+00  -3.9242527821206847e-03 -2.2919575863399617e-03 0.0000000000000000e+00  -3.3947199386173263e-03 -4.2389141356899227e-03 0.0000000000000000e+00  -4.3493106151224733e-03 -1.9145067680181882e-03 0.0000000000000000e+00  -1.3783450956630231e-03 -3.9377321910093492e-03 0.0000000000000000e+00  -1.6731754426637414e-03 -3.6763113584885711e-03 0.0000000000000000e+00  -1.6465081433202509e-03 -1.7343862405443736e-03 0.0000000000000000e+00  -2.7803805670610295e-03 -1.5544329213692781e-03 0.0000000000000000e+00  -3.4591042023863262e-03 -4.1997365267001695e-03 0.0000000000000000e+00  -1.7554335423756967e-03 -2.3806872364517716e-03 0.0000000000000000e+00  -3.4502240083223489e-03 -3.3199020604661113e-03 0.0000000000000000e+00  -1.6557842899943178e-03 -4.2695444275083882e-03 0.0000000000000000e+00  -1.7206394766708440e-03 -4.3561902980658908e-03 0.0000000000000000e+00  -2.7803557675637721e-03 -4.3061129713808169e-03 0.0000000000000000e+00  -2.5479395637659436e-03 -4.3931395649785916e-03 0.0000000000000000e+00  -4.0653184009648534e-03 -3.3869997500784402e-03 0.0000000000000000e+00  -4.3500629203693580e-03 -2.6993129345703822e-03 0.0000000000000000e+00  -4.1860677799665158e-03 -3.5446452754149069e-03 0.0000000000000000e+00  -1.6794644451483861e-03 -3.4298348626951142e-03 0.0000000000000000e+00  -4.2532209963716651e-03 -1.7668898455182585e-03 0.0000000000000000e+00  -2.7807632052025319e-03 -2.2646516556258868e-03 0.0000000000000000e+00  -3.3567153517703929e-03 -2.8288053691669698e-03 0.0000000000000000e+00  -2.2169440522237555e-03 -2.8288796279013640e-03 0.0000000000000000e+00  -2.7807267252316172e-03 -3.4043007150816608e-03 0.0000000000000000e+00  -2.9106476026652685e-03 -2.2385092665559467e-03 0.0000000000000000e+00  -3.3280006536588434e-03 -1.7810657947506391e-03 0.0000000000000000e+00  -2.1542893012022968e-03 -1.6940001575444002e-03 0.0000000000000000e+00  -1.6378331951310515e-03 -1.4122332882665471e-03 0.0000000000000000e+00  -2.2030464163750019e-03 -1.4250394114223594e-03 0.0000000000000000e+00  -4.2711165137297906e-03 -4.3926208935536979e-03 0.0000000000000000e+00  -2.7807632052025319e-03 -2.2646516556258868e-03 0.0000000000000000e+00  -2.2169440522237555e-03 -2.8288796279013640e-03 0.0000000000000000e+00  -4.3440604748718175e-03 -4.0849956127647002e-03 0.0000000000000000e+00  -1.4249783643433571e-03 -1.5563147547671438e-03 0.0000000000000000e+00  -1.4765648464761731e-03 -2.0984951935614071e-03 0.0000000000000000e+00  -2.5242379473590644e-03 -1.4873832364858950e-03 0.0000000000000000e+00  -3.1467738979761581e-03 -1.4721787111554841e-03 0.0000000000000000e+00  -3.5164933411763249e-03 -2.5815325787612543e-03 0.0000000000000000e+00  -3.3728492137113718e-03 -2.9934187312932242e-03 0.0000000000000000e+00  -2.9395270384875794e-03 -3.4042238784349598e-03 0.0000000000000000e+00  -2.7803805670610295e-03 -1.5544329213692781e-03 0.0000000000000000e+00  -2.7805571664549565e-03 -1.4983637175271659e-03 0.0000000000000000e+00  -3.5034335139977088e-03 -2.8282315015284039e-03 0.0000000000000000e+00  -2.7802185678297859e-03 -2.4000228148213995e-03 0.0000000000000000e+00  -1.5146261895044278e-03 -2.8283837311602910e-03 0.0000000000000000e+00  -2.3635901957019777e-03 -2.8281862351269066e-03 0.0000000000000000e+00  -1.4539069969793580e-03 -2.8286179080446059e-03 0.0000000000000000e+00  -2.7805335802598545e-03 -4.2499792492237806e-03 0.0000000000000000e+00  -2.7802367160059157e-03 -3.5397803719619840e-03 0.0000000000000000e+00  -2.7805571664549565e-03 -1.4983637175271659e-03 0.0000000000000000e+00  -1.4539069969793580e-03 -2.8286179080446059e-03 0.0000000000000000e+00  -3.5034335139977088e-03 -2.8282315015284039e-03 0.0000000000000000e+00  -4.2665287493913419e-03 -2.8283874580205160e-03 0.0000000000000000e+00  -4.2057346834350950e-03 -2.8286471226508210e-03 0.0000000000000000e+00  -4.2665287493913419e-03 -2.8283874580205160e-03 0.0000000000000000e+00  -4.2057346834350950e-03 -2.8286471226508210e-03 0.0000000000000000e+00  -4.1904346264448151e-03 -4.2344580782265771e-03 0.0000000000000000e+00  -3.8391380209024965e-03 -2.6756894548159624e-03 0.0000000000000000e+00  -3.9627268346953968e-03 -2.2719981722893259e-03 0.0000000000000000e+00  -3.3705607436687593e-03 -3.4180504582095282e-03 0.0000000000000000e+00  -4.1760361118610761e-03 -1.6210995026942725e-03 0.0000000000000000e+00  -4.3153783070882107e-03 -1.4140492415755581e-03 0.0000000000000000e+00  -4.3107290306641562e-03 -1.6060536285433049e-03 0.0000000000000000e+00  -2.2396014518035207e-03 -1.6743963947623013e-03 0.0000000000000000e+00  -1.3692017299119577e-03 -2.2763324099796659e-03 0.0000000000000000e+00  -4.3346099551648991e-03 -1.5330121360479232e-03 0.0000000000000000e+00  -3.4519799769514542e-03 -4.2765815580967084e-03 0.0000000000000000e+00  -2.0827293110583537e-03 -4.3278462430938001e-03 0.0000000000000000e+00  -2.6210227713464812e-03 -3.8655537288628697e-03 0.0000000000000000e+00  -4.2607167526546282e-03 -4.2769273441240806e-03 0.0000000000000000e+00  -1.3691751900028449e-03 -1.4323222549950004e-03 0.0000000000000000e+00  -1.3919553058772361e-03 -4.2470656311330273e-03 0.0000000000000000e+00  -1.3837330199873972e-03 -3.8480223853282736e-03 0.0000000000000000e+00  -3.8890031862996517e-03 -4.2744297948804130e-03 0.0000000000000000e+00  -1.6893924788338645e-03 -4.3431196724503076e-03 0.0000000000000000e+00  -3.8290185451591158e-03 -1.4519418552516301e-03 0.0000000000000000e+00  -1.5234933564474305e-03 -3.9776708348046308e-03 0.0000000000000000e+00  -1.3837254774113402e-03 -4.3823097132899324e-03 0.0000000000000000e+00  -3.3125859633513300e-03 -1.4113490260521170e-03 0.0000000000000000e+00  -4.3316103936058056e-03 -4.3883950525695501e-03 0.0000000000000000e+00  -3.8274803887457733e-03 -1.5850536086228953e-03 0.0000000000000000e+00  -3.9304152382321576e-03 -3.8250496356680148e-03 0.0000000000000000e+00  -3.6255213175281019e-03 -1.4740970382940764e-03 0.0000000000000000e+00  -3.6118217665709589e-03 -1.5426559583445346e-03 0.0000000000000000e+00  -1.7078747356968414e-03 -1.7571337663597939e-03 0.0000000000000000e+00  -1.5749541820182823e-03 -4.3894461390160807e-03 0.0000000000000000e+00  -2.6504790032684015e-03 -2.5449483090328132e-03 0.0000000000000000e+00  -4.1087271711466970e-03 -3.8503126406796758e-03 0.0000000000000000e+00  -3.2888654772853894e-03 -3.8578411354866925e-03 0.0000000000000000e+00  -3.9959204443070166e-03 -1.8447453216944593e-03 0.0000000000000000e+00  -4.2857583242396436e-03 -4.2874920683377065e-03 0.0000000000000000e+00  -3.2884294808003846e-03 -1.9579573825152844e-03 0.0000000000000000e+00  -2.3056217671491653e-03 -2.1994874189624177e-03 0.0000000000000000e+00  -4.3041927099087378e-03 -3.4334257632945829e-03 0.0000000000000000e+00  -1.3975947678279942e-03 -4.1800284465902168e-03 0.0000000000000000e+00  -3.7619047186842084e-03 -3.7930151759815707e-03 0.0000000000000000e+00  -3.7559002191641469e-03 -4.3517039240885029e-03 0.0000000000000000e+00  -4.3230139482205816e-03 -2.2555059781973019e-03 0.0000000000000000e+00  -4.3485609373577275e-03 -2.3399002771214744e-03 0.0000000000000000e+00  -2.5866765246961181e-03 -3.9552115827281688e-03 0.0000000000000000e+00  -1.9172753809389576e-03 -3.3517790029955049e-03 0.0000000000000000e+00  -2.4558585588582574e-03 -3.1914991993534860e-03 0.0000000000000000e+00  -1.4878305184664322e-03 -1.4559471419520018e-03 0.0000000000000000e+00  -4.1552734843702333e-03 -2.1227427244389788e-03 0.0000000000000000e+00  -4.3513223004706504e-03 -4.1520742323367240e-03 0.0000000000000000e+00  -2.6248230707872316e-03 -2.0307698804164316e-03 0.0000000000000000e+00  -2.9140743390065299e-03 -4.2837483723474606e-03 0.0000000000000000e+00  -4.2463363066464312e-03 -3.0759904844644198e-03 0.0000000000000000e+00  -3.2480019999030262e-03 -4.3638827148079762e-03 0.0000000000000000e+00  -3.2020439916923701e-03 -4.3780222865634176e-03 0.0000000000000000e+00  -1.4147076076190012e-03 -1.4151837050013355e-03 0.0000000000000000e+00  -2.1329002974065933e-03 -4.0121678975827959e-03 0.0000000000000000e+00  -1.4307889069176077e-03 -1.7343645342446387e-03 0.0000000000000000e+00  -1.5778898475906147e-03 -2.4459349644948072e-03 0.0000000000000000e+00  -2.0014411459647725e-03 -4.2582710496571882e-03 0.0000000000000000e+00  -4.0960740514857392e-03 -1.4179314468670400e-03 0.0000000000000000e+00  -3.0043599153358868e-03 -4.1126284099272017e-03 0.0000000000000000e+00  -1.7373445790091545e-03 -2.3481831136713234e-03 0.0000000000000000e+00  -3.7320303968238272e-03 -4.3465088060525266e-03 0.0000000000000000e+00  -2.3357106221324150e-03 -3.1671778061877613e-03 0.0000000000000000e+00  -2.3642949927211998e-03 -3.8381593737554136e-03 0.0000000000000000e+00  -1.7117325641783101e-03 -3.4621380968701309e-03 0.0000000000000000e+00  -2.1447228233705600e-03 -1.4205102432678254e-03 0.0000000000000000e+00  -1.4694309306069557e-03 -3.4685589398500936e-03 0.0000000000000000e+00  -1.5378831546409961e-03 -2.1188061675210166e-03 0.0000000000000000e+00  -4.1081202583188696e-03 -2.6482545358430978e-03 0.0000000000000000e+00  -3.7163735972942061e-03 -1.6643760534743722e-03 0.0000000000000000e+00  -3.2750761500565150e-03 -1.7399550344862293e-03 0.0000000000000000e+00  -3.6090348165244896e-03 -4.3853760942881674e-03 0.0000000000000000e+00  -2.9248757443733927e-03 -4.3657077012313264e-03 0.0000000000000000e+00  -2.4108299195730216e-03 -1.4271915406348066e-03 0.0000000000000000e+00  -1.6810995336073926e