<?xml version="1.0"?>
<VTKFile type="UnstructuredGrid"  version="0.1"  >
<UnstructuredGrid>
<Piece  NumberOfPoints="1380" NumberOfCells="2630">
<Points>
<DataArray  type="Float64"  NumberOfComponents="3"  format="ascii">-1 -1 0  1 -1 0  1 1 0  -1 1 0  0 -1 0  1 0 0  0 1 0  -1 0 0  0 0 0  -1 -0.5 0  -0.5 -1 0  -0.5 1 0  -1 0.5 0  1 -0.5 0  0.5 -1 0  1 0.5 0  0.5 1 0  0.4166666666666666 -0.4166666666666667 0  -0.4166666666666667 0.4166666666666667 0  -0.25 -0.5 0  0.5 0.25 0  -0.4861111111111112 -0.06944444444444445 0  0.0732758620689655 0.507183908045977 0  -0.625 -0.625 0  0.625 0.625 0  0.7380952380952381 -0.25 0  -0.7099116161616161 0.2105429292929293 0  -0.25 0.7380952380952381 0  0.105392156862745 -0.6348039215686275 0  0.6770833333333334 -0.6770833333333333 0  -0.6770833333333334 0.6770833333333334 0  0.3472222222222222 -0.06944444444444446 0  -0.7264957264957265 -0.3044871794871795 0  0.3141940982507127 0.7297313660835709 0  0.02049587951122483 -0.3227479397556124 0  -0.2690972222222223 0.1475694444444444 0  0.3859500089908372 -0.7274430156831472 0  -0.2228477945123298 -0.1761765495248019 0  0.2182539682539683 0.1884920634920635 0  0.75 0.375 0  -0.145442219440968 -0.7602211097204841 0  0.7088913690476191 0.0427827380952381 0  -0.75 -1 0  -1 -0.75 0  1 0.75 0  0.75 1 0  -0.7439982703698937 -0.04614153195464455 0  -0.4609235096577606 -0.3356498099556895 0  0.4063134471431929 0.4895621842856023 0  0.25 -1 0  -0.25 -1 0  -0.75 1 0  0.75 -1 0  -1 -0.25 0  -1 0.25 0  1 -0.25 0  -0.25 1 0  1 -0.75 0  -1 0.75 0  0.25 1 0  1 0.25 0  -0.4041423272138783 -0.7597141090712928 0  0.06500839607911253 0.7578103030529481 0  -0.1572801182352047 0.3838997021864289 0  -0.6528005242053915 0.4409494757946086 0  -0.4930160984848485 0.1544744318181818 0  -0.4732142857142858 0.7752976190476191 0  0.6398809523809523 -0.4538690476190476 0  0.5166054117396399 -0.2161233620965164 0  -0.002273787244753427 0.2232363985975174 0  0.1500564496765022 -0.1524955293952667 0  0.2016720420046758 -0.4410343282803009 0  -0.08495178036419618 0.6274139771124571 0  -0.8367311471133162 0.3642591720794645 0  -0.8333333333333334 -0.625 0  -0.594323836800685 -0.8231079456002283 0  -0.4466957714776065 -0.5349126855671806 0  0.8125 0.5625 0  0.78125 0.78125 0  0.5091392650016769 0.7947130883338923 0  0.125 -0.8382681931833136 0  -0.8184523809523809 -0.8184523809523809 0  -0.07781530426104531 -0.5819319697006881 0  0.5085055196703295 0.04967610411902112 0  0.2918471072074933 -0.276017202318847 0  0.5120763537765269 -0.5898771553229597 0  0.625 -0.8585349462365591 0  0.8158532234335381 -0.8158532234335381 0  -0.5198088446315396 0.5739411553684605 0  -0.8585349462365591 0.625 0  -0.8150493805516597 0.8156205699829586 0  0.8585349462365591 -0.625 0  -0.2688268348649726 0.5439331383603209 0  0.8242100426758139 -0.4436043596336612 0  0.5833756314287952 0.4479378157143976 0  0.8690476190476191 -0.125 0  -0.125 0.8690476190476191 0  -0.8692745600729823 0.125 0  0.8696725120759167 0.125 0  -0.625 0.8711516477451908 0  0.2339522463269718 0.3879558377955778 0  0.2453709502295031 0.5655822922838026 0  0.1730610651637797 0.02021709580868947 0  0.3245402594056757 -0.5644672020485209 0  -0.7291666666666666 -0.4816595441595442 0  -1 -0.375 0  -0.5811140848639904 -0.2127276307675001 0  0.673332592838314 0.2158348143233718 0  0.375 1 0  -0.5714768890989919 0.2985103444040069 0  -1 -0.125 0  -0.8453692574786325 -0.1875 0  -0.3144549134065865 -0.02408675326008025 0  -0.2898414972096258 -0.3336092734780093 0  -0.1075052092206287 -0.4224330421314983 0  -0.05043970703604117 -0.1652278959397459 0  0.6459672950297897 -0.1113415301525317 0  0.4645210271029513 0.6398480556579343 0  0.3512863754411909 0.0937979496253573 0  -0.6063160985568274 0.03891469652249891 0  -0.3428819444444445 0.8690476190476191 0  0.625 1 0  -0.1602164796159982 0.02697860906625157 0  0.04648110064133829 -0.4808416424239687 0  1 0.875 0  -0.3836102479201657 0.6484936449177356 0  -0.3776011723096096 0.263078478984336 0  -0.6024978259969829 -0.3949628096211138 0  0.125 1 0  0.2010781308272777 0.8456221018461906 0  0.2822509696388829 -0.845902544691141 0  -0.3285533674953515 -0.6289773550938936 0  0.3461306793221754 0.278777492464833 0  0.4737475672408696 -0.8508448959534423 0  0.2384632828836344 -0.7029523187242811 0  -0.004777287059791593 0.3759269695907358 0  -0.8499735021850066 -0.3912320205328522 0  0.1222536293721587 0.2963971539625205 0  -0.3769456520999688 -0.203572526805711 0  -0.2749617205755651 -0.8464290792698902 0  0.004805888512766143 -0.747174355248311 0  -0.125 -1 0  -0.06001061822252458 -0.8724007765244854 0  0.875 0.4375 0  0.854421179608893 0.271342359217786 0  0.875 1 0  -0.1499861095763589 0.2358309656934888 0  0.3381943639137225 0.8663061796405532 0  -0.7853090110442228 0.4998412775277108 0  0.7398165998560814 -0.5535192694951373 0  0.1580042122341573 -0.3100246140259917 0  -0.7291666666666667 -0.7142857142857142 0  -0.375 -1 0  0.6483368386154684 0.8514905990110488 0  -0.1295370103291928 -0.2826118305021242 0  0.07458201853700455 0.1123894386563915 0  0.6146465857036327 -0.3161203659316075 0  0.5551898493894731 -0.740296118159085 0  0.375 -1 0  0.482702798370208 -0.084133350091034 0  0.87890625 0.68359375 0  -0.05917195534525846 0.4971092425697621 0  0.1260710309213975 0.6343750312956699 0  0.8690476190476191 -0.3077066815262848 0  -0.2912010232560567 0.3668168386732139 0  -0.875 1 0  -1 0.875 0  1 -0.875 0  0.875 -1 0  -0.8689564281364567 -0.006189266075306407 0  -0.7449425635110547 0.08458938160051771 0  -0.7150266761936593 -0.1739444581417552 0  -0.5260034831318311 -0.711099823962112 0  -0.4724626808827322 -0.871722230709409 0  0.4734436795977052 0.377714794132168 0  -0.875 -1 0  -1 -0.875 0  0.6927189078571988 0.5156567235715964 0  -0.3742497615796874 -0.4296005251260107 0  -0.1969436423297711 -0.6387157229772615 0  -0.6179496409766825 -0.08933356056510935 0  -0.424405057115988 0.04452428810878029 0  -0.08479048335844169 0.1279607007132633 0  0.003830300099055113 0.8712085230656206 0  0.8748778838820267 -1.379218479898026e-05 0  -0.375 1 0  -0.625 1 0  1 0.125 0  -0.125 1 0  1 -0.375 0  1 -0.125 0  1 -0.625 0  0.625 -1 0  0.125 -1 0  -0.625 -1 0  -1 -0.625 0  -1 0.125 0  -1 0.375 0  -1 0.625 0  1 0.375 0  1 0.625 0  0.6325660748712082 0.3335187599557389 0  -0.06420945895056573 0.7549874027425891 0  -0.8769015540914771 0.2478802253893416 0  0.871875 0.871875 0  -0.6868091492840067 0.3270978624973681 0  -0.5363597469565949 0.412994850055505 0  -0.6803734992638302 0.5574295000651103 0  -0.7076253581162534 -0.8803439094224437 0  -0.8778089002295137 -0.5106896447504627 0  -0.3860184984222981 0.530566778071246 0  0.6109900617121508 0.1128453077697081 0  0.3896945134930274 -0.1915382873255086 0  0.7605656944697778 -0.06822134873122943 0  0.3576151269893478 0.5948388411612135 0  -0.5689902680792265 -0.5143596830118065 0  0.6262446286847614 -0.5735657901943212 0  0.2030558252325225 -0.5625263842513452 0  0.6123273142928579 0.7407533260723429 0  0.4016460890123554 -0.3042863223111857 0  -0.59039693199147 0.7578418819188018 0  0.7276932493917544 -0.3705808024528924 0  0.5222536818742854 -0.4713886230400014 0  -0.5101986527137737 0.8848365765607674 0  0.510560172809238 0.5356013299918891 0  -0.3603569195756083 0.75823710606415 0  0.1967279277813232 0.728226870058472 0  -0.6086880986371127 0.1545624071548516 0  -0.38105366729386 0.1511189987807864 0  -0.2944659463671584 -0.7359061804869591 0  0.5060729154966499 -0.3475227845833823 0  -0.09281616240412746 -0.06197858250969457 0  0.7649739583333334 0.6673177083333334 0  0.7628906249999999 0.890234375 0  -0.2666864184909611 0.2585504071132311 0  0.3635064892129658 0.3878003602709461 0  -0.2339409722222222 0.8901937905844155 0  -0.1718792125974916 -0.8957733325456778 0  0.1001768566329531 0.4023510017391879 0  0.3120260172693757 -0.4540546875576884 0  0.7804062804433681 0.1896628610854537 0  0.4087715451998049 0.187961780041608 0  -0.1584963477271457 0.5451611892421655 0  -0.8926817849258324 0.463022006336401 0  0.2338091473445219 -0.07576267331277289 0  0.08171112182813692 -0.2349087687359925 0  0.04635385178956847 -0.1044635073718474 0  -0.4377391632114205 -0.6448874471423088 0  -0.1907678351227189 0.6480215912813945 0  0.300605946475244 0.4741444604171038 0  -0.2145033720757486 -0.06751709909419711 0  0.6069191921170397 -0.005492331448357812 0  0.0214718770761248 0.6032397936031719 0  0.5476675683364878 0.8992752415326501 0  0.4387475014316537 0.9093708953002239 0  -0.4932997685306436 -0.4381009159993523 0  0.2515197695339056 -0.1791673369138964 0  -0.7291666666666667 -0.6088789682539681 0  -0.9166666666666667 -0.6875 0  0.620579540363709 -0.2122431523583302 0  -0.484950136419973 0.6719440339397442 0  0.2857044415400258 0.0137589173127316 0  -0.8945708364098356 -0.288306105327986 0  0.4043102720140535 0.7842914560451557 0  0.04123256238752064 -0.9026968245801402 0  0.2003676884403109 -0.9091888601740487 0  0.1068775558538842 -0.7373377130403223 0  -0.4804566783514427 -0.1763307203045643 0  0.108286342087769 -0.3993789328997278 0  -0.191883080105361 -0.3640821726430649 0  -0.07025064492006244 0.2984876656890053 0  -0.7039324641409584 0.788312126296613 0  -0.7311286585775438 0.8932502354831682 0  0.5171409396884947 0.1503852691889257 0  0.4229392823658633 -0.003216522184234835 0  -0.5621736087218259 -0.919558629836806 0  -0.626474064879544 -0.7266572613636506 0  0.2446828746617422 0.2867616783302419 0  0.1759429608742923 0.4776611759306416 0  -0.3468240303741654 -0.5260416435617549 0  -0.7465808808425306 0.4069574477998361 0  -0.7819962170660292 0.2802441065650652 0  -0.3742623214119594 -0.8547800509641984 0  0.1014498009713561 0.8506721983266377 0  0.4285217620918213 -0.5230190595570253 0  0.4091738370487775 -0.6256346204225141 0  0.78125 0.46875 0  0.90625 0.53125 0  -0.4791801348852565 0.2553992655702126 0  0.7843318610782772 -0.7086046956885941 0  0.8909728264971901 -0.7355183796514634 0  0.7041908166528879 -0.7830649143180282 0  0.7311821352
[...]
<PointData  Vectors="f_22"> 
<DataArray  type="Float64"  Name="f_22"  NumberOfComponents="3" format="ascii">-2.8074107472532413e-03 -2.8532190882188785e-03 0.0000000000000000e+00  -2.8074107472532413e-03 -2.8532190882188785e-03 0.0000000000000000e+00  -2.8074107472532413e-03 -2.8532190882188785e-03 0.0000000000000000e+00  -2.8074107472532413e-03 -2.8532190882188785e-03 0.0000000000000000e+00  -2.8071579728371717e-03 -2.9511614381163174e-03 0.0000000000000000e+00  -2.9129561454833163e-03 -2.8529117662301389e-03 0.0000000000000000e+00  -2.8071579728371717e-03 -2.9511614381163174e-03 0.0000000000000000e+00  -2.9129561454833163e-03 -2.8529117662301389e-03 0.0000000000000000e+00  -2.9131809444780062e-03 -2.9514789795581551e-03 0.0000000000000000e+00  -1.9490381768793902e-03 -2.8530487736118100e-03 0.0000000000000000e+00  -2.8072859547863377e-03 -1.9911191086875251e-03 0.0000000000000000e+00  -2.8072859547863377e-03 -1.9911191086875251e-03 0.0000000000000000e+00  -3.7713397799110406e-03 -2.8530325827849810e-03 0.0000000000000000e+00  -1.9490381768793902e-03 -2.8530487736118100e-03 0.0000000000000000e+00  -2.8072559031119661e-03 -3.8133182597851331e-03 0.0000000000000000e+00  -3.7713397799110406e-03 -2.8530325827849810e-03 0.0000000000000000e+00  -2.8072559031119661e-03 -3.8133182597851331e-03 0.0000000000000000e+00  -1.9936510105669834e-03 -3.7948771654381167e-03 0.0000000000000000e+00  -3.7538324680349501e-03 -2.0347692035593938e-03 0.0000000000000000e+00  -1.9491598404263160e-03 -2.2927694331073669e-03 0.0000000000000000e+00  -3.5419519580521283e-03 -3.8133899426747095e-03 0.0000000000000000e+00  -2.7146583917374303e-03 -1.9941546517604396e-03 0.0000000000000000e+00  -3.7699228609435064e-03 -3.1579776737001679e-03 0.0000000000000000e+00  -1.9983257984714730e-03 -2.0418158375215471e-03 0.0000000000000000e+00  -3.6818604506289117e-03 -3.7252638306674636e-03 0.0000000000000000e+00  -2.2531759426416328e-03 -3.5364939788383033e-03 0.0000000000000000e+00  -3.4614822559033559e-03 -2.1519177440042559e-03 0.0000000000000000e+00  -3.4919519583593533e-03 -2.2925761467557848e-03 0.0000000000000000e+00  -2.0077141265260599e-03 -3.2447481970789924e-03 0.0000000000000000e+00  -2.0584509766112327e-03 -3.6498824415935154e-03 0.0000000000000000e+00  -3.6059005694099771e-03 -2.1025288784044271e-03 0.0000000000000000e+00  -2.7146694619425596e-03 -3.7331007653929145e-03 0.0000000000000000e+00  -2.1460908522327425e-03 -2.1801538794878569e-03 0.0000000000000000e+00  -3.5092495300853973e-03 -3.6895502579417758e-03 0.0000000000000000e+00  -2.1146874401732911e-03 -3.0099379806253208e-03 0.0000000000000000e+00  -3.3149653031196878e-03 -2.2531411813542426e-03 0.0000000000000000e+00  -2.1371077224094843e-03 -3.7725681803786903e-03 0.0000000000000000e+00  -2.4263595858870055e-03 -2.3528995233239782e-03 0.0000000000000000e+00  -3.4127652803857145e-03 -3.5172724192209736e-03 0.0000000000000000e+00  -3.7222853488775047e-03 -3.5117599605726480e-03 0.0000000000000000e+00  -2.1983393446345519e-03 -2.5442944237560636e-03 0.0000000000000000e+00  -3.0346327410156835e-03 -3.5939698364349198e-03 0.0000000000000000e+00  -2.8073559857070859e-03 -2.2233705697155062e-03 0.0000000000000000e+00  -2.1786272059841059e-03 -2.8531670409203545e-03 0.0000000000000000e+00  -3.4671205667252685e-03 -2.8531410674015730e-03 0.0000000000000000e+00  -2.8073619070365929e-03 -3.5117772790310233e-03 0.0000000000000000e+00  -2.7808288857177118e-03 -2.2117608231232047e-03 0.0000000000000000e+00  -2.0940450367748979e-03 -2.0040993981971550e-03 0.0000000000000000e+00  -3.7727134988237696e-03 -3.7885042219418246e-03 0.0000000000000000e+00  -2.8071868086152214e-03 -3.5811042989049085e-03 0.0000000000000000e+00  -2.8071876140444703e-03 -2.2926127708688994e-03 0.0000000000000000e+00  -2.8073559857070859e-03 -2.2233705697155062e-03 0.0000000000000000e+00  -2.8073619070365929e-03 -3.5117772790310233e-03 0.0000000000000000e+00  -2.2532051209966960e-03 -2.8529624386849309e-03 0.0000000000000000e+00  -3.5417719843999431e-03 -2.8529471357706736e-03 0.0000000000000000e+00  -2.2532051209966960e-03 -2.8529624386849309e-03 0.0000000000000000e+00  -2.8071876140444703e-03 -2.2926127708688994e-03 0.0000000000000000e+00  -2.1786272059841059e-03 -2.8531670409203545e-03 0.0000000000000000e+00  -3.4671205667252685e-03 -2.8531410674015730e-03 0.0000000000000000e+00  -2.8071868086152214e-03 -3.5811042989049085e-03 0.0000000000000000e+00  -3.5417719843999431e-03 -2.8529471357706736e-03 0.0000000000000000e+00  -2.1974558923298832e-03 -2.0467335363756976e-03 0.0000000000000000e+00  -3.4500518742551405e-03 -3.1350174792616182e-03 0.0000000000000000e+00  -3.7302325337305333e-03 -2.5133793801087210e-03 0.0000000000000000e+00  -3.7653159003625310e-03 -2.0712756600643279e-03 0.0000000000000000e+00  -3.3319515298749474e-03 -1.9923542752406744e-03 0.0000000000000000e+00  -3.4108655640340958e-03 -1.9983878398131916e-03 0.0000000000000000e+00  -1.9660875050869415e-03 -3.7056733016856080e-03 0.0000000000000000e+00  -2.3290757542349006e-03 -3.8094091388264227e-03 0.0000000000000000e+00  -3.4885850862309852e-03 -2.9449655046162580e-03 0.0000000000000000e+00  -2.4871921165010857e-03 -3.3598612067529633e-03 0.0000000000000000e+00  -1.9743038478654651e-03 -3.4811745206445154e-03 0.0000000000000000e+00  -3.6785741329480007e-03 -2.7092289624845150e-03 0.0000000000000000e+00  -3.7115051183330078e-03 -2.4121562906787419e-03 0.0000000000000000e+00  -1.9982834636028735e-03 -2.4042462284169434e-03 0.0000000000000000e+00  -2.3347053722660789e-03 -2.0165994579553459e-03 0.0000000000000000e+00  -1.9488857885051353e-03 -2.0121725174901033e-03 0.0000000000000000e+00  -3.7436105971521958e-03 -3.3675721745338723e-03 0.0000000000000000e+00  -3.3974246344263773e-03 -3.4423092182411601e-03 0.0000000000000000e+00  -3.3657160434039024e-03 -3.8115979879396657e-03 0.0000000000000000e+00  -2.3705617308299319e-03 -3.2961410647269333e-03 0.0000000000000000e+00  -2.3238579931079734e-03 -2.3691121108604671e-03 0.0000000000000000e+00  -1.9656129303451970e-03 -2.7293589245236420e-03 0.0000000000000000e+00  -3.0541024766465846e-03 -3.8116777137875571e-03 0.0000000000000000e+00  -2.1996427891931309e-03 -3.6552249257757515e-03 0.0000000000000000e+00  -1.9702428180954530e-03 -3.8106594777017342e-03 0.0000000000000000e+00  -2.4206851941866096e-03 -3.7251320592154853e-03 0.0000000000000000e+00  -2.3177613335568967e-03 -3.3592673934561717e-03 0.0000000000000000e+00  -3.7345040580259122e-03 -1.9897137146650092e-03 0.0000000000000000e+00  -3.6817051809819798e-03 -2.4661308387950521e-03 0.0000000000000000e+00  -3.3146643773872722e-03 -2.3611481770469110e-03 0.0000000000000000e+00  -1.9981537506823322e-03 -3.2495177182534515e-03 0.0000000000000000e+00  -3.7552406236322396e-03 -2.2535565950287757e-03 0.0000000000000000e+00  -1.9725285825341193e-03 -3.3382050335293801e-03 0.0000000000000000e+00  -3.7679184047537547e-03 -3.7695990533335795e-03 0.0000000000000000e+00  -2.5602224255419741e-03 -3.2213309081605404e-03 0.0000000000000000e+00  -3.1758918746183900e-03 -2.5987819431013475e-03 0.0000000000000000e+00  -3.2575959905915531e-03 -2.4932460549780605e-03 0.0000000000000000e+00  -3.2576398370841521e-03 -3.2196908852973093e-03 0.0000000000000000e+00  -3.1703454291002924e-03 -2.0416961110543827e-03 0.0000000000000000e+00  -3.7338242677676711e-03 -3.5497335450296631e-03 0.0000000000000000e+00  -3.7413116538501118e-03 -3.5723503862273311e-03 0.0000000000000000e+00  -2.9709290904862749e-03 -3.4157264308064569e-03 0.0000000000000000e+00  -1.9568877896330972e-03 -3.7039871301169191e-03 0.0000000000000000e+00  -1.9537142353237753e-03 -2.1849286557447710e-03 0.0000000000000000e+00  -2.0385840015625014e-03 -2.8529925815760221e-03 0.0000000000000000e+00  -2.3371636147655303e-03 -2.0081983989610518e-03 0.0000000000000000e+00  -3.4729626668151973e-03 -3.6560640416755706e-03 0.0000000000000000e+00  -2.8072192972312497e-03 -3.7627161221177739e-03 0.0000000000000000e+00  -3.6259707879180165e-03 -2.0029250973231968e-03 0.0000000000000000e+00  -2.5602466223084504e-03 -2.8529028654582459e-03 0.0000000000000000e+00  -2.3978859149992719e-03 -2.4332753935606289e-03 0.0000000000000000e+00  -2.8441452403918811e-03 -2.1687098790285557e-03 0.0000000000000000e+00  -2.0972672900401697e-03 -2.2128748683795719e-03 0.0000000000000000e+00  -1.9888013310565386e-03 -2.6467670422356212e-03 0.0000000000000000e+00  -2.4542386906468388e-03 -2.8070759867393829e-03 0.0000000000000000e+00  -2.5975175764956747e-03 -3.6972877544640941e-03 0.0000000000000000e+00  -3.6624055711114529e-03 -3.8132197384902864e-03 0.0000000000000000e+00  -3.1755241653284461e-03 -3.7379035234222616e-03 0.0000000000000000e+00  -3.0237644763312717e-03 -2.0252867201926554e-03 0.0000000000000000e+00  -3.1759086202995438e-03 -2.1230423392515330e-03 0.0000000000000000e+00  -2.8072914219015518e-03 -3.7252013243835513e-03 0.0000000000000000e+00  -2.9901237378527376e-03 -2.5059094534264177e-03 0.0000000000000000e+00  -1.9538640590250201e-03 -3.0833962864883283e-03 0.0000000000000000e+00  -3.1600784553528810e-03 -2.8531630837359168e-03 0.0000000000000000e+00  -3.6499857801224021e-03 -2.0687929756416489e-03 0.0000000000000000e+00  -3.5661318266498798e-03 -2.0760297748111879e-03 0.0000000000000000e+00  -2.0154644750524134e-03 -2.0224987368076047e-03 0.0000000000000000e+00  -2.8071694372703159e-03 -3.2961121770252013e-03 0.0000000000000000e+00  -3.2380980208513042e-03 -3.4797915655462286e-03 0.0000000000000000e+00  -2.3891990683296105e-03 -3.6392488905711102e-03 0.0000000000000000e+00  -2.0020843539834358e-03 -2.1453539432462151e-03 0.0000000000000000e+00  -3.5940104028057075e-03 -3.7318829447106064e-03 0.0000000000000000e+00  -2.4014169592433150e-03 -3.8141981138884152e-03 0.0000000000000000e+00  -2.0964272444689187e-03 -3.5585405384868578e-03 0.0000000000000000e+00  -3.7231243063348134e-03 -2.9377269201243546e-03 0.0000000000000000e+00  -2.0194657849496728e-03 -2.4447690106495861e-03 0.0000000000000000e+00  -3.6228904931136720e-03 -3.2893025511857451e-03 0.0000000000000000e+00  -2.3589588662179684e-03 -2.0769799006846077e-03 0.0000000000000000e+00  -2.3906065320314983e-03 -2.2413491221740921e-03 0.0000000000000000e+00  -2.1730733487933338e-03 -2.9649682197790124e-03 0.0000000000000000e+00  -2.8071582269808062e-03 -2.5988032316383502e-03 0.0000000000000000e+00  -2.4558410021818622e-03 -2.7795669357297370e-03 0.0000000000000000e+00  -3.7641827889798047e-03 -3.2054827469192386e-03 0.0000000000000000e+00  -3.5809578792182191e-03 -3.2603731678851988e-03 0.0000000000000000e+00  -2.8073775075768536e-03 -3.2055642274224677e-03 0.0000000000000000e+00  -3.5142176711910507e-03 -2.5324622578086339e-03 0.0000000000000000e+00  -3.1834176093122192e-03 -3.7220154985445706e-03 0.0000000000000000e+00  -3.7712620767967947e-03 -2.2947834677589864e-03 0.0000000000000000e+00  -1.9529467107107362e-03 -3.5329983084731740e-03 0.0000000000000000e+00  -2.1363036966034186e-03 -3.3793843147915670e-03 0.0000000000000000e+00  -2.1150148481396216e-03 -2.1849825226219139e-03 0.0000000000000000e+00  -2.8072333251410848e-03 -2.0792219808015299e-03 0.0000000000000000e+00  -3.2228470775587984e-03 -3.6941687626935592e-03 0.0000000000000000e+00  -2.1868721815408829e-03 -2.5868387466985599e-03 0.0000000000000000e+00  -3.2250075931838621e-03 -3.1616687029196121e-03 0.0000000000000000e+00  -2.1256515184146143e-03 -3.7373728287545560e-03 0.0000000000000000e+00  -2.1602223383454700e-03 -3.7910933080131542e-03 0.0000000000000000e+00  -2.8072192972312497e-03 -3.7627161221177739e-03 0.0000000000000000e+00  -2.6731614953336346e-03 -3.8146042819719420e-03 0.0000000000000000e+00  -3.5951696916248547e-03 -3.1949726310252996e-03 0.0000000000000000e+00  -3.7717301234371009e-03 -2.7820918140647522e-03 0.0000000000000000e+00  -3.6696464759910325e-03 -3.2990291281932514e-03 0.0000000000000000e+00  -2.1402246249001286e-03 -3.2213331342956942e-03 0.0000000000000000e+00  -3.7141476656164297e-03 -2.2101185050938548e-03 0.0000000000000000e+00  -2.8073999813343254e-03 -2.5083194586874654e-03 0.0000000000000000e+00  -3.1600784553528810e-03 -2.8531630837359168e-03 0.0000000000000000e+00  -2.4627725757509233e-03 -2.8532089757627318e-03 0.0000000000000000e+00  -2.8073775075768536e-03 -3.2055642274224677e-03 0.0000000000000000e+00  -2.8952453372902980e-03 -2.4924739138105279e-03 0.0000000000000000e+00  -3.1504308951198446e-03 -2.2135041422997612e-03 0.0000000000000000e+00  -2.4318630281979824e-03 -2.1604817851636517e-03 0.0000000000000000e+00  -2.1097458065504515e-03 -1.9902615980467654e-03 0.0000000000000000e+00  -2.4543083433374228e-03 -1.9988106440674957e-03 0.0000000000000000e+00  -3.7248793963023724e-03 -3.8143503616216508e-03 0.0000000000000000e+00  -2.8073999813343254e-03 -2.5083194586874654e-03 0.0000000000000000e+00  -2.4627725757509233e-03 -2.8532089757627318e-03 0.0000000000000000e+00  -3.7677534962466119e-03 -3.6234830888293721e-03 0.0000000000000000e+00  -1.9829811356575091e-03 -2.0803084445500004e-03 0.0000000000000000e+00  -2.0119230542570182e-03 -2.4138159618941617e-03 0.0000000000000000e+00  -2.6586356496835430e-03 -2.0351436101936271e-03 0.0000000000000000e+00  -3.0396144830044779e-03 -2.0282619196189851e-03 0.0000000000000000e+00  -3.2654860468551380e-03 -2.7099047260714026e-03 0.0000000000000000e+00  -3.1700594288715548e-03 -2.9621546175028855e-03 0.0000000000000000e+00  -2.9129151040694049e-03 -3.2056361542055997e-03 0.0000000000000000e+00  -2.8072333251410848e-03 -2.0792219808015299e-03 0.0000000000000000e+00  -2.8073046606117780e-03 -2.0417441294585132e-03 0.0000000000000000e+00  -3.2575941559847984e-03 -2.8529297432467455e-03 0.0000000000000000e+00  -2.8071582269808062e-03 -2.5988032316383502e-03 0.0000000000000000e+00  -2.0385840015625014e-03 -2.8529925815760221e-03 0.0000000000000000e+00  -2.5602466223084504e-03 -2.8529028654582459e-03 0.0000000000000000e+00  -1.9982219838298935e-03 -2.8530883398047405e-03 0.0000000000000000e+00  -2.8072914219015518e-03 -3.7252013243835513e-03 0.0000000000000000e+00  -2.8071694372703159e-03 -3.2961121770252013e-03 0.0000000000000000e+00  -2.8073046606117780e-03 -2.0417441294585132e-03 0.0000000000000000e+00  -1.9982219838298935e-03 -2.8530883398047405e-03 0.0000000000000000e+00  -3.2575941559847984e-03 -2.8529297432467455e-03 0.0000000000000000e+00  -3.7221818559647953e-03 -2.8529952822055394e-03 0.0000000000000000e+00  -3.6817765822793344e-03 -2.8531068450677374e-03 0.0000000000000000e+00  -3.7221818559647953e-03 -2.8529952822055394e-03 0.0000000000000000e+00  -3.6817765822793344e-03 -2.8531068450677374e-03 0.0000000000000000e+00  -3.6760557467657700e-03 -3.7156129906615958e-03 0.0000000000000000e+00  -3.4561663929350227e-03 -2.7676713043202732e-03 0.0000000000000000e+00  -3.5377097499897621e-03 -2.5129275283352916e-03 0.0000000000000000e+00  -3.1685575479539598e-03 -3.2139900156931758e-03 0.0000000000000000e+00  -3.6674086502815513e-03 -2.1162203389323638e-03 0.0000000000000000e+00  -3.7516379576700647e-03 -1.9913298492186442e-03 0.0000000000000000e+00  -3.7469234184766102e-03 -2.1070672536528091e-03 0.0000000000000000e+00  -2.4766058537548361e-03 -2.1484984088200789e-03 0.0000000000000000e+00  -1.9478429271233167e-03 -2.5154905922760598e-03 0.0000000000000000e+00  -3.7618904509427362e-03 -2.0660015123376203e-03 0.0000000000000000e+00  -3.2261212526976716e-03 -3.7416721797912402e-03 0.0000000000000000e+00  -2.3879691075606550e-03 -3.7758189596875996e-03 0.0000000000000000e+00  -2.7179565244194628e-03 -3.4886656596647908e-03 0.0000000000000000e+00  -3.7157548833029351e-03 -3.7450072443459622e-03 0.0000000000000000e+00  -1.9477419140392425e-03 -2.0020003791783344e-03 0.0000000000000000e+00  -1.9610314513567022e-03 -3.7234714097572862e-03 0.0000000000000000e+00  -1.9561327353593079e-03 -3.4841766827984288e-03 0.0000000000000000e+00  -3.4867049724311081e-03 -3.7402874167181701e-03 0.0000000000000000e+00  -2.1463227938696657e-03 -3.7850359171424462e-03 0.0000000000000000e+00  -3.4499483086380379e-03 -2.0138076486476771e-03 0.0000000000000000e+00  -2.0440937157987838e-03 -3.5575678783921500e-03 0.0000000000000000e+00  -1.9573242146939691e-03 -3.8075120892779616e-03 0.0000000000000000e+00  -3.1331126805717326e-03 -1.9899794642319730e-03 0.0000000000000000e+00  -3.7598689890303303e-03 -3.8112892146578213e-03 0.0000000000000000e+00  -3.4490242489630383e-03 -2.0981480195366390e-03 0.0000000000000000e+00  -3.5122139307506451e-03 -3.4701504229144929e-03 0.0000000000000000e+00  -3.3321134125556626e-03 -2.0271593623602062e-03 0.0000000000000000e+00  -3.3237226597485135e-03 -2.0719168909192282e-03 0.0000000000000000e+00  -2.1523841175835417e-03 -2.2041026081333274e-03 0.0000000000000000e+00  -2.0758450748583363e-03 -3.8120790276646574e-03 0.0000000000000000e+00  -2.7359051517430581e-03 -2.6874854411652314e-03 0.0000000000000000e+00  -3.6218972030169524e-03 -3.4791966378294788e-03 0.0000000000000000e+00  -3.1184936557885306e-03 -3.4838173456463789e-03 0.0000000000000000e+00  -3.5578790232832654e-03 -2.2579727872895140e-03 0.0000000000000000e+00  -3.7337137770218692e-03 -3.7513863632938921e-03 0.0000000000000000e+00  -3.1183312144950604e-03 -2.3275963895179942e-03 0.0000000000000000e+00  -2.5170036512331111e-03 -2.4758292648100842e-03 0.0000000000000000e+00  -3.7448392045078944e-03 -3.2310603593410886e-03 0.0000000000000000e+00  -1.9660181311374823e-03 -3.6862911917306075e-03 0.0000000000000000e+00  -3.4152910831777360e-03 -3.4440857943228839e-03 0.0000000000000000e+00  -3.4115763921055498e-03 -3.7901373995897652e-03 0.0000000000000000e+00  -3.7545822961226349e-03 -2.5101636031153660e-03 0.0000000000000000e+00  -3.7712684860839395e-03 -2.5543709280485662e-03 0.0000000000000000e+00  -2.6968521962201560e-03 -3.5494364576133838e-03 0.0000000000000000e+00  -2.2863566695895915e-03 -3.1811704901435491e-03 0.0000000000000000e+00  -2.6166999523539801e-03 -3.0831825783936609e-03 0.0000000000000000e+00  -2.0187062437974387e-03 -2.0181376182098138e-03 0.0000000000000000e+00  -3.6507032329197763e-03 -2.4287403340029073e-03 0.0000000000000000e+00  -3.7727370315948938e-03 -3.6692399791335892e-03 0.0000000000000000e+00  -2.7201970892691807e-03 -2.3721953134539088e-03 0.0000000000000000e+00  -2.8973093399178884e-03 -3.7461235007529253e-03 0.0000000000000000e+00  -3.7069115652014375e-03 -3.0126170601647226e-03 0.0000000000000000e+00  -3.0934780607347230e-03 -3.7958415664920198e-03 0.0000000000000000e+00  -3.0653401956265277e-03 -3.8059043030426241e-03 0.0000000000000000e+00  -1.9765882546437042e-03 -1.9924795412067844e-03 0.0000000000000000e+00  -2.4187305899772450e-03 -3.5841434855362325e-03 0.0000000000000000e+00  -1.9842374338908736e-03 -2.1849753615129064e-03 0.0000000000000000e+00  -2.0733348500415485e-03 -2.6190733106009386e-03 0.0000000000000000e+00  -2.3381087266608988e-03 -3.7303988880317937e-03 0.0000000000000000e+00  -3.6142228899102066e-03 -1.9943562038721606e-03 0.0000000000000000e+00  -2.9524954699296554e-03 -3.6452592614637605e-03 0.0000000000000000e+00  -2.1758087737299143e-03 -2.5594184788911315e-03 0.0000000000000000e+00  -3.3903116915728667e-03 -3.7870392461818530e-03 0.0000000000000000e+00  -2.5354065468097650e-03 -3.0684312128457618e-03 0.0000000000000000e+00  -2.5528748230711760e-03 -3.4781875460266438e-03 0.0000000000000000e+00  -2.1548018384757355e-03 -3.2486806325220884e-03 0.0000000000000000e+00  -2.4259586537921833e-03 -1.9959215943387491e-03 0.0000000000000000e+00  -2.0106195268847359e-03 -3.2525473802256072e-03 0.0000000000000000e+00  -2.0528753344867074e-03 -2.4262370291987440e-03 0.0000000000000000e+00  -3.6260974370238464e-03 -2.7507917701144859e-03 0.0000000000000000e+00  -3.3807483402025795e-03 -2.1424573378567421e-03 0.0000000000000000e+00  -3.1100874932194190e-03 -2.1884018696711567e-03 0.0000000000000000e+00  -3.3219897449789752e-03 -3.8093855838542828e-03 0.0000000000000000e+00  -2.9038901483074346e-03 -3.7985546170301522e-03 0.0000000000000000e+00  -2.5812269043119563e-03 -1.9989714033798287e-03 0.0000000000000000e+00  -2.1360537675164551e