<?xml version="1.0"?>
<VTKFile type="UnstructuredGrid"  version="0.1"  >
<UnstructuredGrid>
<Piece  NumberOfPoints="1380" NumberOfCells="2630">
<Points>
<DataArray  type="Float64"  NumberOfComponents="3"  format="ascii">-1 -1 0  1 -1 0  1 1 0  -1 1 0  0 -1 0  1 0 0  0 1 0  -1 0 0  0 0 0  -1 -0.5 0  -0.5 -1 0  -0.5 1 0  -1 0.5 0  1 -0.5 0  0.5 -1 0  1 0.5 0  0.5 1 0  0.4166666666666666 -0.4166666666666667 0  -0.4166666666666667 0.4166666666666667 0  -0.25 -0.5 0  0.5 0.25 0  -0.4861111111111112 -0.06944444444444445 0  0.0732758620689655 0.507183908045977 0  -0.625 -0.625 0  0.625 0.625 0  0.7380952380952381 -0.25 0  -0.7099116161616161 0.2105429292929293 0  -0.25 0.7380952380952381 0  0.105392156862745 -0.6348039215686275 0  0.6770833333333334 -0.6770833333333333 0  -0.6770833333333334 0.6770833333333334 0  0.3472222222222222 -0.06944444444444446 0  -0.7264957264957265 -0.3044871794871795 0  0.3141940982507127 0.7297313660835709 0  0.02049587951122483 -0.3227479397556124 0  -0.2690972222222223 0.1475694444444444 0  0.3859500089908372 -0.7274430156831472 0  -0.2228477945123298 -0.1761765495248019 0  0.2182539682539683 0.1884920634920635 0  0.75 0.375 0  -0.145442219440968 -0.7602211097204841 0  0.7088913690476191 0.0427827380952381 0  -0.75 -1 0  -1 -0.75 0  1 0.75 0  0.75 1 0  -0.7439982703698937 -0.04614153195464455 0  -0.4609235096577606 -0.3356498099556895 0  0.4063134471431929 0.4895621842856023 0  0.25 -1 0  -0.25 -1 0  -0.75 1 0  0.75 -1 0  -1 -0.25 0  -1 0.25 0  1 -0.25 0  -0.25 1 0  1 -0.75 0  -1 0.75 0  0.25 1 0  1 0.25 0  -0.4041423272138783 -0.7597141090712928 0  0.06500839607911253 0.7578103030529481 0  -0.1572801182352047 0.3838997021864289 0  -0.6528005242053915 0.4409494757946086 0  -0.4930160984848485 0.1544744318181818 0  -0.4732142857142858 0.7752976190476191 0  0.6398809523809523 -0.4538690476190476 0  0.5166054117396399 -0.2161233620965164 0  -0.002273787244753427 0.2232363985975174 0  0.1500564496765022 -0.1524955293952667 0  0.2016720420046758 -0.4410343282803009 0  -0.08495178036419618 0.6274139771124571 0  -0.8367311471133162 0.3642591720794645 0  -0.8333333333333334 -0.625 0  -0.594323836800685 -0.8231079456002283 0  -0.4466957714776065 -0.5349126855671806 0  0.8125 0.5625 0  0.78125 0.78125 0  0.5091392650016769 0.7947130883338923 0  0.125 -0.8382681931833136 0  -0.8184523809523809 -0.8184523809523809 0  -0.07781530426104531 -0.5819319697006881 0  0.5085055196703295 0.04967610411902112 0  0.2918471072074933 -0.276017202318847 0  0.5120763537765269 -0.5898771553229597 0  0.625 -0.8585349462365591 0  0.8158532234335381 -0.8158532234335381 0  -0.5198088446315396 0.5739411553684605 0  -0.8585349462365591 0.625 0  -0.8150493805516597 0.8156205699829586 0  0.8585349462365591 -0.625 0  -0.2688268348649726 0.5439331383603209 0  0.8242100426758139 -0.4436043596336612 0  0.5833756314287952 0.4479378157143976 0  0.8690476190476191 -0.125 0  -0.125 0.8690476190476191 0  -0.8692745600729823 0.125 0  0.8696725120759167 0.125 0  -0.625 0.8711516477451908 0  0.2339522463269718 0.3879558377955778 0  0.2453709502295031 0.5655822922838026 0  0.1730610651637797 0.02021709580868947 0  0.3245402594056757 -0.5644672020485209 0  -0.7291666666666666 -0.4816595441595442 0  -1 -0.375 0  -0.5811140848639904 -0.2127276307675001 0  0.673332592838314 0.2158348143233718 0  0.375 1 0  -0.5714768890989919 0.2985103444040069 0  -1 -0.125 0  -0.8453692574786325 -0.1875 0  -0.3144549134065865 -0.02408675326008025 0  -0.2898414972096258 -0.3336092734780093 0  -0.1075052092206287 -0.4224330421314983 0  -0.05043970703604117 -0.1652278959397459 0  0.6459672950297897 -0.1113415301525317 0  0.4645210271029513 0.6398480556579343 0  0.3512863754411909 0.0937979496253573 0  -0.6063160985568274 0.03891469652249891 0  -0.3428819444444445 0.8690476190476191 0  0.625 1 0  -0.1602164796159982 0.02697860906625157 0  0.04648110064133829 -0.4808416424239687 0  1 0.875 0  -0.3836102479201657 0.6484936449177356 0  -0.3776011723096096 0.263078478984336 0  -0.6024978259969829 -0.3949628096211138 0  0.125 1 0  0.2010781308272777 0.8456221018461906 0  0.2822509696388829 -0.845902544691141 0  -0.3285533674953515 -0.6289773550938936 0  0.3461306793221754 0.278777492464833 0  0.4737475672408696 -0.8508448959534423 0  0.2384632828836344 -0.7029523187242811 0  -0.004777287059791593 0.3759269695907358 0  -0.8499735021850066 -0.3912320205328522 0  0.1222536293721587 0.2963971539625205 0  -0.3769456520999688 -0.203572526805711 0  -0.2749617205755651 -0.8464290792698902 0  0.004805888512766143 -0.747174355248311 0  -0.125 -1 0  -0.06001061822252458 -0.8724007765244854 0  0.875 0.4375 0  0.854421179608893 0.271342359217786 0  0.875 1 0  -0.1499861095763589 0.2358309656934888 0  0.3381943639137225 0.8663061796405532 0  -0.7853090110442228 0.4998412775277108 0  0.7398165998560814 -0.5535192694951373 0  0.1580042122341573 -0.3100246140259917 0  -0.7291666666666667 -0.7142857142857142 0  -0.375 -1 0  0.6483368386154684 0.8514905990110488 0  -0.1295370103291928 -0.2826118305021242 0  0.07458201853700455 0.1123894386563915 0  0.6146465857036327 -0.3161203659316075 0  0.5551898493894731 -0.740296118159085 0  0.375 -1 0  0.482702798370208 -0.084133350091034 0  0.87890625 0.68359375 0  -0.05917195534525846 0.4971092425697621 0  0.1260710309213975 0.6343750312956699 0  0.8690476190476191 -0.3077066815262848 0  -0.2912010232560567 0.3668168386732139 0  -0.875 1 0  -1 0.875 0  1 -0.875 0  0.875 -1 0  -0.8689564281364567 -0.006189266075306407 0  -0.7449425635110547 0.08458938160051771 0  -0.7150266761936593 -0.1739444581417552 0  -0.5260034831318311 -0.711099823962112 0  -0.4724626808827322 -0.871722230709409 0  0.4734436795977052 0.377714794132168 0  -0.875 -1 0  -1 -0.875 0  0.6927189078571988 0.5156567235715964 0  -0.3742497615796874 -0.4296005251260107 0  -0.1969436423297711 -0.6387157229772615 0  -0.6179496409766825 -0.08933356056510935 0  -0.424405057115988 0.04452428810878029 0  -0.08479048335844169 0.1279607007132633 0  0.003830300099055113 0.8712085230656206 0  0.8748778838820267 -1.379218479898026e-05 0  -0.375 1 0  -0.625 1 0  1 0.125 0  -0.125 1 0  1 -0.375 0  1 -0.125 0  1 -0.625 0  0.625 -1 0  0.125 -1 0  -0.625 -1 0  -1 -0.625 0  -1 0.125 0  -1 0.375 0  -1 0.625 0  1 0.375 0  1 0.625 0  0.6325660748712082 0.3335187599557389 0  -0.06420945895056573 0.7549874027425891 0  -0.8769015540914771 0.2478802253893416 0  0.871875 0.871875 0  -0.6868091492840067 0.3270978624973681 0  -0.5363597469565949 0.412994850055505 0  -0.6803734992638302 0.5574295000651103 0  -0.7076253581162534 -0.8803439094224437 0  -0.8778089002295137 -0.5106896447504627 0  -0.3860184984222981 0.530566778071246 0  0.6109900617121508 0.1128453077697081 0  0.3896945134930274 -0.1915382873255086 0  0.7605656944697778 -0.06822134873122943 0  0.3576151269893478 0.5948388411612135 0  -0.5689902680792265 -0.5143596830118065 0  0.6262446286847614 -0.5735657901943212 0  0.2030558252325225 -0.5625263842513452 0  0.6123273142928579 0.7407533260723429 0  0.4016460890123554 -0.3042863223111857 0  -0.59039693199147 0.7578418819188018 0  0.7276932493917544 -0.3705808024528924 0  0.5222536818742854 -0.4713886230400014 0  -0.5101986527137737 0.8848365765607674 0  0.510560172809238 0.5356013299918891 0  -0.3603569195756083 0.75823710606415 0  0.1967279277813232 0.728226870058472 0  -0.6086880986371127 0.1545624071548516 0  -0.38105366729386 0.1511189987807864 0  -0.2944659463671584 -0.7359061804869591 0  0.5060729154966499 -0.3475227845833823 0  -0.09281616240412746 -0.06197858250969457 0  0.7649739583333334 0.6673177083333334 0  0.7628906249999999 0.890234375 0  -0.2666864184909611 0.2585504071132311 0  0.3635064892129658 0.3878003602709461 0  -0.2339409722222222 0.8901937905844155 0  -0.1718792125974916 -0.8957733325456778 0  0.1001768566329531 0.4023510017391879 0  0.3120260172693757 -0.4540546875576884 0  0.7804062804433681 0.1896628610854537 0  0.4087715451998049 0.187961780041608 0  -0.1584963477271457 0.5451611892421655 0  -0.8926817849258324 0.463022006336401 0  0.2338091473445219 -0.07576267331277289 0  0.08171112182813692 -0.2349087687359925 0  0.04635385178956847 -0.1044635073718474 0  -0.4377391632114205 -0.6448874471423088 0  -0.1907678351227189 0.6480215912813945 0  0.300605946475244 0.4741444604171038 0  -0.2145033720757486 -0.06751709909419711 0  0.6069191921170397 -0.005492331448357812 0  0.0214718770761248 0.6032397936031719 0  0.5476675683364878 0.8992752415326501 0  0.4387475014316537 0.9093708953002239 0  -0.4932997685306436 -0.4381009159993523 0  0.2515197695339056 -0.1791673369138964 0  -0.7291666666666667 -0.6088789682539681 0  -0.9166666666666667 -0.6875 0  0.620579540363709 -0.2122431523583302 0  -0.484950136419973 0.6719440339397442 0  0.2857044415400258 0.0137589173127316 0  -0.8945708364098356 -0.288306105327986 0  0.4043102720140535 0.7842914560451557 0  0.04123256238752064 -0.9026968245801402 0  0.2003676884403109 -0.9091888601740487 0  0.1068775558538842 -0.7373377130403223 0  -0.4804566783514427 -0.1763307203045643 0  0.108286342087769 -0.3993789328997278 0  -0.191883080105361 -0.3640821726430649 0  -0.07025064492006244 0.2984876656890053 0  -0.7039324641409584 0.788312126296613 0  -0.7311286585775438 0.8932502354831682 0  0.5171409396884947 0.1503852691889257 0  0.4229392823658633 -0.003216522184234835 0  -0.5621736087218259 -0.919558629836806 0  -0.626474064879544 -0.7266572613636506 0  0.2446828746617422 0.2867616783302419 0  0.1759429608742923 0.4776611759306416 0  -0.3468240303741654 -0.5260416435617549 0  -0.7465808808425306 0.4069574477998361 0  -0.7819962170660292 0.2802441065650652 0  -0.3742623214119594 -0.8547800509641984 0  0.1014498009713561 0.8506721983266377 0  0.4285217620918213 -0.5230190595570253 0  0.4091738370487775 -0.6256346204225141 0  0.78125 0.46875 0  0.90625 0.53125 0  -0.4791801348852565 0.2553992655702126 0  0.7843318610782772 -0.7086046956885941 0  0.8909728264971901 -0.7355183796514634 0  0.7041908166528879 -0.7830649143180282 0  0.7311821352
[...]
<PointData  Vectors="f_22"> 
<DataArray  type="Float64"  Name="f_22"  NumberOfComponents="3" format="ascii">-2.8504363347823546e-03 -2.8930371245281432e-03 0.0000000000000000e+00  -2.8504363347823546e-03 -2.8930371245281432e-03 0.0000000000000000e+00  -2.8504363347823546e-03 -2.8930371245281432e-03 0.0000000000000000e+00  -2.8504363347823546e-03 -2.8930371245281432e-03 0.0000000000000000e+00  -2.8504287792448994e-03 -2.9113894935564300e-03 0.0000000000000000e+00  -2.8699175268052527e-03 -2.8930286144606635e-03 0.0000000000000000e+00  -2.8504287792448994e-03 -2.9113894935564300e-03 0.0000000000000000e+00  -2.8699175268052527e-03 -2.8930286144606635e-03 0.0000000000000000e+00  -2.8699212673692284e-03 -2.9114000492094293e-03 0.0000000000000000e+00  -2.7325574244574098e-03 -2.8930320259792966e-03 0.0000000000000000e+00  -2.8504338661805373e-03 -2.7745936680682059e-03 0.0000000000000000e+00  -2.8504338661805373e-03 -2.7745936680682059e-03 0.0000000000000000e+00  -2.9877981167764859e-03 -2.8930297798757847e-03 0.0000000000000000e+00  -2.7325574244574098e-03 -2.8930320259792966e-03 0.0000000000000000e+00  -2.8504299656123481e-03 -3.0298414642808908e-03 0.0000000000000000e+00  -2.9877981167764859e-03 -2.8930297798757847e-03 0.0000000000000000e+00  -2.8504299656123481e-03 -3.0298414642808908e-03 0.0000000000000000e+00  -2.7394240914833065e-03 -3.0278641054254773e-03 0.0000000000000000e+00  -2.9859643718784198e-03 -2.7813135749147457e-03 0.0000000000000000e+00  -2.7325625803082611e-03 -2.8184637300746091e-03 0.0000000000000000e+00  -2.9573080585326189e-03 -3.0298420537837297e-03 0.0000000000000000e+00  -2.8420687278854460e-03 -2.7751154697321923e-03 0.0000000000000000e+00  -2.9875433320381800e-03 -2.9402782716825820e-03 0.0000000000000000e+00  -2.7385503881747686e-03 -2.7808007183955474e-03 0.0000000000000000e+00  -2.9743550046684463e-03 -3.0166129954652251e-03 0.0000000000000000e+00  -2.7768213281900269e-03 -2.9895176014644465e-03 0.0000000000000000e+00  -2.9462537351214566e-03 -2.7957250237687884e-03 0.0000000000000000e+00  -2.9470942119960587e-03 -2.8184604154354309e-03 0.0000000000000000e+00  -2.7398269360755130e-03 -2.9523813498138055e-03 0.0000000000000000e+00  -2.7466592313712414e-03 -3.0057405832517275e-03 0.0000000000000000e+00  -2.9634029601260719e-03 -2.7889919584314993e-03 0.0000000000000000e+00  -2.8420708029464723e-03 -3.0196612887635498e-03 0.0000000000000000e+00  -2.7614982819694281e-03 -2.7995688770992419e-03 0.0000000000000000e+00  -2.9495393806951687e-03 -3.0137694018935804e-03 0.0000000000000000e+00  -2.7569865810521529e-03 -2.9195918720212616e-03 0.0000000000000000e+00  -2.9259609944981353e-03 -2.8128159414734662e-03 0.0000000000000000e+00  -2.7573865765030173e-03 -3.0249521708467504e-03 0.0000000000000000e+00  -2.8013852468049788e-03 -2.8270134869604296e-03 0.0000000000000000e+00  -2.9394972314945962e-03 -2.9901364201269601e-03 0.0000000000000000e+00  -2.9818138794702269e-03 -2.9859693714938012e-03 0.0000000000000000e+00  -2.7657759939785208e-03 -2.8541508522630268e-03 0.0000000000000000e+00  -2.8869307619208890e-03 -2.9977215295923440e-03 0.0000000000000000e+00  -2.8504335518202339e-03 -2.8054885083882816e-03 0.0000000000000000e+00  -2.7630536510072222e-03 -2.8930360143094125e-03 0.0000000000000000e+00  -2.9435265897312926e-03 -2.8930322886886540e-03 0.0000000000000000e+00  -2.8504345620230069e-03 -2.9859646651748807e-03 0.0000000000000000e+00  -2.8513799080127074e-03 -2.8039156704174387e-03 0.0000000000000000e+00  -2.7540054067393422e-03 -2.7766805461357123e-03 0.0000000000000000e+00  -2.9880510697367947e-03 -3.0270198153833977e-03 0.0000000000000000e+00  -2.8504293979262616e-03 -2.9989514284100944e-03 0.0000000000000000e+00  -2.8504292992033880e-03 -2.8184642641478214e-03 0.0000000000000000e+00  -2.8504335518202339e-03 -2.8054885083882816e-03 0.0000000000000000e+00  -2.8504345620230069e-03 -2.9859646651748807e-03 0.0000000000000000e+00  -2.7768214940557309e-03 -2.8930312270693736e-03 0.0000000000000000e+00  -2.9573044502741509e-03 -2.8930291427411471e-03 0.0000000000000000e+00  -2.7768214940557309e-03 -2.8930312270693736e-03 0.0000000000000000e+00  -2.8504292992033880e-03 -2.8184642641478214e-03 0.0000000000000000e+00  -2.7630536510072222e-03 -2.8930360143094125e-03 0.0000000000000000e+00  -2.9435265897312926e-03 -2.8930322886886540e-03 0.0000000000000000e+00  -2.8504293979262616e-03 -2.9989514284100944e-03 0.0000000000000000e+00  -2.9573044502741509e-03 -2.8930291427411471e-03 0.0000000000000000e+00  -2.7656420945871706e-03 -2.7830608867365643e-03 0.0000000000000000e+00  -2.9411128025014542e-03 -2.9370881831737258e-03 0.0000000000000000e+00  -2.9828759446044201e-03 -2.8497732656926626e-03 0.0000000000000000e+00  -2.9874002090453339e-03 -2.7847745685660010e-03 0.0000000000000000e+00  -2.9283263409273135e-03 -2.7748227460837327e-03 0.0000000000000000e+00  -2.9355457232395446e-03 -2.7758146443676870e-03 0.0000000000000000e+00  -2.7352978750080806e-03 -3.0137992740146028e-03 0.0000000000000000e+00  -2.7876134285739246e-03 -3.0291831149176600e-03 0.0000000000000000e+00  -2.9499675364241516e-03 -2.9104909912185642e-03 0.0000000000000000e+00  -2.8099979328750908e-03 -2.9683599582510066e-03 0.0000000000000000e+00  -2.7365334755262657e-03 -2.9851723769321768e-03 0.0000000000000000e+00  -2.9739042503423374e-03 -2.8774099992069772e-03 0.0000000000000000e+00  -2.9803951671162811e-03 -2.8315824205282854e-03 0.0000000000000000e+00  -2.7385486619316908e-03 -2.8304593916914562e-03 0.0000000000000000e+00  -2.7845793081065660e-03 -2.7774800241097764e-03 0.0000000000000000e+00  -2.7322641649790277e-03 -2.7779132352983055e-03 0.0000000000000000e+00  -2.9834472196867351e-03 -2.9654804261142233e-03 0.0000000000000000e+00  -2.9336050263831337e-03 -2.9760782652184315e-03 0.0000000000000000e+00  -2.9291071414451349e-03 -3.0295260431723674e-03 0.0000000000000000e+00  -2.7895735127789882e-03 -2.9595365112775932e-03 0.0000000000000000e+00  -2.7830755689380415e-03 -2.8255895454547854e-03 0.0000000000000000e+00  -2.7342839478243361e-03 -2.8802347823919439e-03 0.0000000000000000e+00  -2.8896414791876311e-03 -3.0295486229064230e-03 0.0000000000000000e+00  -2.7691724839607346e-03 -3.0090955041801727e-03 0.0000000000000000e+00  -2.7348938558230057e-03 -3.0293948272705771e-03 0.0000000000000000e+00  -2.7965152004911661e-03 -3.0166087283038001e-03 0.0000000000000000e+00  -2.7822443730547521e-03 -2.9643078877843133e-03 0.0000000000000000e+00  -2.9821179640209983e-03 -2.7742667035410315e-03 0.0000000000000000e+00  -2.9743524459143102e-03 -2.8390580320309905e-03 0.0000000000000000e+00  -2.9218766923797069e-03 -2.8244975617502189e-03 0.0000000000000000e+00  -2.7385455770645049e-03 -2.9487924355535836e-03 0.0000000000000000e+00  -2.9852357847831206e-03 -2.8128915095538796e-03 0.0000000000000000e+00  -2.7362695164574401e-03 -2.9613439753813993e-03 0.0000000000000000e+00  -2.9876840431302025e-03 -3.0231098949652113e-03 0.0000000000000000e+00  -2.8203338800151076e-03 -2.9448275043544923e-03 0.0000000000000000e+00  -2.9022713320889060e-03 -2.8618534094577239e-03 0.0000000000000000e+00  -2.9180116504592818e-03 -2.8428392377304102e-03 0.0000000000000000e+00  -2.9180130274586084e-03 -2.9445906801860715e-03 0.0000000000000000e+00  -2.9014774991150414e-03 -2.7807977316866815e-03 0.0000000000000000e+00  -2.9833347774904373e-03 -2.9946122018214786e-03 0.0000000000000000e+00  -2.9831049753269783e-03 -2.9977298898828980e-03 0.0000000000000000e+00  -2.8780060491470231e-03 -2.9761007679145715e-03 0.0000000000000000e+00  -2.7332030720417619e-03 -3.0157424733572263e-03 0.0000000000000000e+00  -2.7333346741129842e-03 -2.8002156091863246e-03 0.0000000000000000e+00  -2.7459987026158907e-03 -2.8930303987472726e-03 0.0000000000000000e+00  -2.7887455539613972e-03 -2.7764014914211546e-03 0.0000000000000000e+00  -2.9478207833051611e-03 -3.0066218568414300e-03 0.0000000000000000e+00  -2.8504298595052853e-03 -3.0236395937270062e-03 0.0000000000000000e+00  -2.9688317830528213e-03 -2.7757485937157426e-03 0.0000000000000000e+00  -2.8203365343363995e-03 -2.8930263085731483e-03 0.0000000000000000e+00  -2.7973728042223456e-03 -2.8345047377914528e-03 0.0000000000000000e+00  -2.8602496939702060e-03 -2.8007251745814283e-03 0.0000000000000000e+00  -2.7544694244274401e-03 -2.8070524603025981e-03 0.0000000000000000e+00  -2.7386817362054865e-03 -2.8685951363744350e-03 0.0000000000000000e+00  -2.8053327995150113e-03 -2.8911446736619387e-03 0.0000000000000000e+00  -2.8255893938558649e-03 -3.0125819033397995e-03 0.0000000000000000e+00  -2.9715322601776969e-03 -3.0300722408503782e-03 0.0000000000000000e+00  -2.9065686717710966e-03 -3.0203025681362666e-03 0.0000000000000000e+00  -2.8854116553120005e-03 -2.7786331752047769e-03 0.0000000000000000e+00  -2.9022728745779812e-03 -2.7941742347976422e-03 0.0000000000000000e+00  -2.8504296233948529e-03 -3.0166119517804862e-03 0.0000000000000000e+00  -2.8806920350040854e-03 -2.8487034164541647e-03 0.0000000000000000e+00  -2.7333753186305951e-03 -2.9298704173060220e-03 0.0000000000000000e+00  -2.9000114324585382e-03 -2.8930309137632287e-03 0.0000000000000000e+00  -2.9697678010334430e-03 -2.7863089153755106e-03 0.0000000000000000e+00  -2.9606442822364570e-03 -2.7873541935835885e-03 0.0000000000000000e+00  -2.7426048141365594e-03 -2.7782508915084330e-03 0.0000000000000000e+00  -2.8504294946820690e-03 -2.9595327963456925e-03 0.0000000000000000e+00  -2.9110481307030398e-03 -2.9849860848933196e-03 0.0000000000000000e+00  -2.7921578855139998e-03 -3.0069249001265529e-03 0.0000000000000000e+00  -2.7390558199030289e-03 -2.7973703568145896e-03 0.0000000000000000e+00  -2.9644405177880247e-03 -3.0194889726391605e-03 0.0000000000000000e+00  -2.7938480958691228e-03 -3.0301614421870851e-03 0.0000000000000000e+00  -2.7518279896783194e-03 -2.9958500209816608e-03 0.0000000000000000e+00  -2.9819270514840454e-03 -2.9094829852020295e-03 0.0000000000000000e+00  -2.7432015406548636e-03 -2.8360895217126739e-03 0.0000000000000000e+00  -2.9683868921780363e-03 -2.9585569628235316e-03 0.0000000000000000e+00  -2.7918332520070186e-03 -2.7874749809239630e-03 0.0000000000000000e+00  -2.7923382638752009e-03 -2.8111438768053587e-03 0.0000000000000000e+00  -2.7623104397221155e-03 -2.9133174163679665e-03 0.0000000000000000e+00  -2.8504278769359314e-03 -2.8618563854802522e-03 0.0000000000000000e+00  -2.8014038717751912e-03 -2.8873097768286767e-03 0.0000000000000000e+00  -2.9872475578927079e-03 -2.9425711524082043e-03 0.0000000000000000e+00  -2.9626717799073315e-03 -2.9503286500281683e-03 0.0000000000000000e+00  -2.8504329941841443e-03 -2.9425688330084725e-03 0.0000000000000000e+00  -2.9535027402389619e-03 -2.8524637397872184e-03 0.0000000000000000e+00  -2.9033180948133275e-03 -3.0181739598057178e-03 0.0000000000000000e+00  -2.9877988009471695e-03 -2.8153452520180231e-03 0.0000000000000000e+00  -2.7327248501000470e-03 -2.9890124539158794e-03 0.0000000000000000e+00  -2.7600980241443917e-03 -2.9710746315051479e-03 0.0000000000000000e+00  -2.7543326616350562e-03 -2.8002177885752939e-03 0.0000000000000000e+00  -2.8504315449466430e-03 -2.7878214338057849e-03 0.0000000000000000e+00  -2.9088752220441474e-03 -3.0121057356807227e-03 0.0000000000000000e+00  -2.7673302070003844e-03 -2.8601373332480130e-03 0.0000000000000000e+00  -2.9134532592706907e-03 -2.9407802394405577e-03 0.0000000000000000e+00  -2.7585838569643278e-03 -3.0184077743970294e-03 0.0000000000000000e+00  -2.7605498478325842e-03 -3.0263398982888975e-03 0.0000000000000000e+00  -2.8504298595052853e-03 -3.0236395937270062e-03 0.0000000000000000e+00  -2.8362374726382282e-03 -3.0301490646446037e-03 0.0000000000000000e+00  -2.9618370105278348e-03 -2.9410775443571352e-03 0.0000000000000000e+00  -2.9878769135603181e-03 -2.8876508065030734e-03 0.0000000000000000e+00  -2.9725966440166817e-03 -2.9599237445649355e-03 0.0000000000000000e+00  -2.7606746177522329e-03 -2.9448258463349963e-03 0.0000000000000000e+00  -2.9807439496249899e-03 -2.8066766130707362e-03 0.0000000000000000e+00  -2.8504361505115533e-03 -2.8449010354325266e-03 0.0000000000000000e+00  -2.9000114324585382e-03 -2.8930309137632287e-03 0.0000000000000000e+00  -2.8023433131001687e-03 -2.8930374550821276e-03 0.0000000000000000e+00  -2.8504329941841443e-03 -2.9425688330084725e-03 0.0000000000000000e+00  -2.8674347482702252e-03 -2.8427302687686015e-03 0.0000000000000000e+00  -2.9030947855455324e-03 -2.8041594469493123e-03 0.0000000000000000e+00  -2.8021795867269419e-03 -2.7968826727058820e-03 0.0000000000000000e+00  -2.7536147123440944e-03 -2.7742743364078805e-03 0.0000000000000000e+00  -2.8011736181981222e-03 -2.7758659469966358e-03 0.0000000000000000e+00  -2.9821501460470462e-03 -3.0301647465439683e-03 0.0000000000000000e+00  -2.8504361505115533e-03 -2.8449010354325266e-03 0.0000000000000000e+00  -2.8023433131001687e-03 -2.8930374550821276e-03 0.0000000000000000e+00  -2.9871669408265684e-03 -3.0019293538173452e-03 0.0000000000000000e+00  -2.7378076785980784e-03 -2.7879582253867324e-03 0.0000000000000000e+00  -2.7403753102324844e-03 -2.8356750932744331e-03 0.0000000000000000e+00  -2.8341907067940403e-03 -2.7799300303308016e-03 0.0000000000000000e+00  -2.8876190230001588e-03 -2.7803349748882593e-03 0.0000000000000000e+00  -2.9190836446583127e-03 -2.8774826004302465e-03 0.0000000000000000e+00  -2.9014456703359702e-03 -2.9129277620115798e-03 0.0000000000000000e+00  -2.8699102943056973e-03 -2.9426110296795556e-03 0.0000000000000000e+00  -2.8504315449466430e-03 -2.7878214338057849e-03 0.0000000000000000e+00  -2.8504312058132988e-03 -2.7807984727209090e-03 0.0000000000000000e+00  -2.9180100950076228e-03 -2.8930299036570395e-03 0.0000000000000000e+00  -2.8504278769359314e-03 -2.8618563854802522e-03 0.0000000000000000e+00  -2.7459987026158907e-03 -2.8930303987472726e-03 0.0000000000000000e+00  -2.8203365343363995e-03 -2.8930263085731483e-03 0.0000000000000000e+00  -2.7385472392714486e-03 -2.8930309757698824e-03 0.0000000000000000e+00  -2.8504296233948529e-03 -3.0166119517804862e-03 0.0000000000000000e+00  -2.8504294946820690e-03 -2.9595327963456925e-03 0.0000000000000000e+00  -2.8504312058132988e-03 -2.7807984727209090e-03 0.0000000000000000e+00  -2.7385472392714486e-03 -2.8930309757698824e-03 0.0000000000000000e+00  -2.9180100950076228e-03 -2.8930299036570395e-03 0.0000000000000000e+00  -2.9818116415435822e-03 -2.8930308070132704e-03 0.0000000000000000e+00  -2.9743545896441532e-03 -2.8930336290308258e-03 0.0000000000000000e+00  -2.9818116415435822e-03 -2.8930308070132704e-03 0.0000000000000000e+00  -2.9743545896441532e-03 -2.8930336290308258e-03 0.0000000000000000e+00  -2.9756082341422792e-03 -3.0152174147923031e-03 0.0000000000000000e+00  -2.9419887575865807e-03 -2.8856358338320265e-03 0.0000000000000000e+00  -2.9567496664788628e-03 -2.8455740556401761e-03 0.0000000000000000e+00  -2.9012061145144391e-03 -2.9437571186935753e-03 0.0000000000000000e+00  -2.9744623442050930e-03 -2.7908602341544359e-03 0.0000000000000000e+00  -2.9856843852307689e-03 -2.7743746512078490e-03 0.0000000000000000e+00  -2.9839725787385077e-03 -2.7896124385593723e-03 0.0000000000000000e+00  -2.8042658360248065e-03 -2.7952289286693860e-03 0.0000000000000000e+00  -2.7323048748838568e-03 -2.8459080084594149e-03 0.0000000000000000e+00  -2.9862669928431163e-03 -2.7859006599102306e-03 0.0000000000000000e+00  -2.9136200692226524e-03 -3.0190208522073375e-03 0.0000000000000000e+00  -2.7959642736611798e-03 -3.0253715886899898e-03 0.0000000000000000e+00  -2.8425487749995739e-03 -2.9827005737722259e-03 0.0000000000000000e+00  -2.9793142606776130e-03 -3.0212579155254626e-03 0.0000000000000000e+00  -2.7322538658188394e-03 -2.7756098356909926e-03 0.0000000000000000e+00  -2.7337168236390022e-03 -3.0163798252363363e-03 0.0000000000000000e+00  -2.7331076011141318e-03 -2.9855921887963874e-03 0.0000000000000000e+00  -2.9463129313390987e-03 -3.0188035090404500e-03 0.0000000000000000e+00  -2.7615459290435151e-03 -3.0265858453645427e-03 0.0000000000000000e+00  -2.9411020194918206e-03 -2.7771335847710469e-03 0.0000000000000000e+00  -2.7468090063701139e-03 -2.9925244214857516e-03 0.0000000000000000e+00  -2.7339437699000556e-03 -3.0288813780064480e-03 0.0000000000000000e+00  -2.8962292112091085e-03 -2.7743646276972758e-03 0.0000000000000000e+00  -2.9859143060167012e-03 -3.0294677626845966e-03 0.0000000000000000e+00  -2.9409764925365477e-03 -2.7905753407365232e-03 0.0000000000000000e+00  -2.9499684788930054e-03 -2.9836484047221479e-03 0.0000000000000000e+00  -2.9283527309200063e-03 -2.7788835041531157e-03 0.0000000000000000e+00  -2.9271806133543961e-03 -2.7867504660441804e-03 0.0000000000000000e+00  -2.7594573786092380e-03 -2.8058102966749465e-03 0.0000000000000000e+00  -2.7514081737718523e-03 -3.0296361003415515e-03 0.0000000000000000e+00  -2.8450469597081480e-03 -2.8743236844939171e-03 0.0000000000000000e+00  -2.9656795988247261e-03 -2.9813236247031088e-03 0.0000000000000000e+00  -2.8941458646349642e-03 -2.9819803914582395e-03 0.0000000000000000e+00  -2.9595077244449724e-03 -2.8135103377077866e-03 0.0000000000000000e+00  -2.9833181942563545e-03 -3.0221085755114453e-03 0.0000000000000000e+00  -2.8941516828797122e-03 -2.8234468578057343e-03 0.0000000000000000e+00  -2.8099063966642870e-03 -2.8444743029659631e-03 0.0000000000000000e+00  -2.9847826806708813e-03 -2.9504573676681074e-03 0.0000000000000000e+00  -2.7352835820378986e-03 -3.0133363364173976e-03 0.0000000000000000e+00  -2.9398634520986177e-03 -2.9763524493413825e-03 0.0000000000000000e+00  -2.9393351529406536e-03 -3.0272333735736445e-03 0.0000000000000000e+00  -2.9851304203270886e-03 -2.8493262767216054e-03 0.0000000000000000e+00  -2.9880655831068400e-03 -2.8513313263021922e-03 0.0000000000000000e+00  -2.8395609229694414e-03 -2.9945736718682225e-03 0.0000000000000000e+00  -2.7815238176706353e-03 -2.9435054907630724e-03 0.0000000000000000e+00  -2.8282715342087153e-03 -2.9298256278280596e-03 0.0000000000000000e+00  -2.7412746061033378e-03 -2.7788148872556653e-03 0.0000000000000000e+00  -2.9698682625582140e-03 -2.8378040434640910e-03 0.0000000000000000e+00  -2.9881692359524864e-03 -3.0109957803469713e-03 0.0000000000000000e+00  -2.8428394971885406e-03 -2.8297553033445858e-03 0.0000000000000000e+00  -2.8677150297305330e-03 -3.0196769617078048e-03 0.0000000000000000e+00  -2.9780329574178922e-03 -2.9199790524252140e-03 0.0000000000000000e+00  -2.8906269064745112e-03 -3.0270437803612930e-03 0.0000000000000000e+00  -2.8866688548423469e-03 -3.0292421413936990e-03 0.0000000000000000e+00  -2.7368510485090139e-03 -2.7748192479675748e-03 0.0000000000000000e+00  -2.8003166377010111e-03 -2.9993518876526705e-03 0.0000000000000000e+00  -2.7366889742064318e-03 -2.8002183572106471e-03 0.0000000000000000e+00  -2.7486582245212182e-03 -2.8603223225519827e-03 0.0000000000000000e+00  -2.7888992158647862e-03 -3.0173893193800880e-03 0.0000000000000000e+00  -2.9646073283577691e-03 -2.7751673977580403e-03 0.0000000000000000e+00  -2.8754295763901258e-03 -3.0077228810296988e-03 0.0000000000000000e+00  -2.7657650760291373e-03 -2.8520309400413518e-03 0.0000000000000000e+00  -2.9326025131623606e-03 -3.0268371167188977e-03 0.0000000000000000e+00  -2.8124742867868149e-03 -2.9277965615627679e-03 0.0000000000000000e+00  -2.8149081235155221e-03 -2.9847709550187606e-03 0.0000000000000000e+00  -2.7598072989704603e-03 -2.9529324135030874e-03 0.0000000000000000e+00  -2.8013335262798305e-03 -2.7753993727745166e-03 0.0000000000000000e+00  -2.7419095695860722e-03 -2.9534557204529423e-03 0.0000000000000000e+00  -2.7480552582222271e-03 -2.8374244924575637e-03 0.0000000000000000e+00  -2.9688309182110094e-03 -2.8832410703422224e-03 0.0000000000000000e+00  -2.9312566035936327e-03 -2.7944180253508511e-03 0.0000000000000000e+00  -2.8929722998883977e-03 -2.8006948147795345e-03 0.0000000000000000e+00  -2.9269316354836499e-03 -3.0291615378589451e-03 0.0000000000000000e+00  -2.8686291680130867e-03 -3.0283206962150085e-03 0.0000000000000000e+00  -2.8188368828895318e-03 -2.7752407433553673e-03 0.0000000000000000e+00  -2.7572097888869953e