<?xml version="1.0"?>
<VTKFile type="UnstructuredGrid"  version="0.1"  >
<UnstructuredGrid>
<Piece  NumberOfPoints="1380" NumberOfCells="2630">
<Points>
<DataArray  type="Float64"  NumberOfComponents="3"  format="ascii">-1 -1 0  1 -1 0  1 1 0  -1 1 0  0 -1 0  1 0 0  0 1 0  -1 0 0  0 0 0  -1 -0.5 0  -0.5 -1 0  -0.5 1 0  -1 0.5 0  1 -0.5 0  0.5 -1 0  1 0.5 0  0.5 1 0  0.4166666666666666 -0.4166666666666667 0  -0.4166666666666667 0.4166666666666667 0  -0.25 -0.5 0  0.5 0.25 0  -0.4861111111111112 -0.06944444444444445 0  0.0732758620689655 0.507183908045977 0  -0.625 -0.625 0  0.625 0.625 0  0.7380952380952381 -0.25 0  -0.7099116161616161 0.2105429292929293 0  -0.25 0.7380952380952381 0  0.105392156862745 -0.6348039215686275 0  0.6770833333333334 -0.6770833333333333 0  -0.6770833333333334 0.6770833333333334 0  0.3472222222222222 -0.06944444444444446 0  -0.7264957264957265 -0.3044871794871795 0  0.3141940982507127 0.7297313660835709 0  0.02049587951122483 -0.3227479397556124 0  -0.2690972222222223 0.1475694444444444 0  0.3859500089908372 -0.7274430156831472 0  -0.2228477945123298 -0.1761765495248019 0  0.2182539682539683 0.1884920634920635 0  0.75 0.375 0  -0.145442219440968 -0.7602211097204841 0  0.7088913690476191 0.0427827380952381 0  -0.75 -1 0  -1 -0.75 0  1 0.75 0  0.75 1 0  -0.7439982703698937 -0.04614153195464455 0  -0.4609235096577606 -0.3356498099556895 0  0.4063134471431929 0.4895621842856023 0  0.25 -1 0  -0.25 -1 0  -0.75 1 0  0.75 -1 0  -1 -0.25 0  -1 0.25 0  1 -0.25 0  -0.25 1 0  1 -0.75 0  -1 0.75 0  0.25 1 0  1 0.25 0  -0.4041423272138783 -0.7597141090712928 0  0.06500839607911253 0.7578103030529481 0  -0.1572801182352047 0.3838997021864289 0  -0.6528005242053915 0.4409494757946086 0  -0.4930160984848485 0.1544744318181818 0  -0.4732142857142858 0.7752976190476191 0  0.6398809523809523 -0.4538690476190476 0  0.5166054117396399 -0.2161233620965164 0  -0.002273787244753427 0.2232363985975174 0  0.1500564496765022 -0.1524955293952667 0  0.2016720420046758 -0.4410343282803009 0  -0.08495178036419618 0.6274139771124571 0  -0.8367311471133162 0.3642591720794645 0  -0.8333333333333334 -0.625 0  -0.594323836800685 -0.8231079456002283 0  -0.4466957714776065 -0.5349126855671806 0  0.8125 0.5625 0  0.78125 0.78125 0  0.5091392650016769 0.7947130883338923 0  0.125 -0.8382681931833136 0  -0.8184523809523809 -0.8184523809523809 0  -0.07781530426104531 -0.5819319697006881 0  0.5085055196703295 0.04967610411902112 0  0.2918471072074933 -0.276017202318847 0  0.5120763537765269 -0.5898771553229597 0  0.625 -0.8585349462365591 0  0.8158532234335381 -0.8158532234335381 0  -0.5198088446315396 0.5739411553684605 0  -0.8585349462365591 0.625 0  -0.8150493805516597 0.8156205699829586 0  0.8585349462365591 -0.625 0  -0.2688268348649726 0.5439331383603209 0  0.8242100426758139 -0.4436043596336612 0  0.5833756314287952 0.4479378157143976 0  0.8690476190476191 -0.125 0  -0.125 0.8690476190476191 0  -0.8692745600729823 0.125 0  0.8696725120759167 0.125 0  -0.625 0.8711516477451908 0  0.2339522463269718 0.3879558377955778 0  0.2453709502295031 0.5655822922838026 0  0.1730610651637797 0.02021709580868947 0  0.3245402594056757 -0.5644672020485209 0  -0.7291666666666666 -0.4816595441595442 0  -1 -0.375 0  -0.5811140848639904 -0.2127276307675001 0  0.673332592838314 0.2158348143233718 0  0.375 1 0  -0.5714768890989919 0.2985103444040069 0  -1 -0.125 0  -0.8453692574786325 -0.1875 0  -0.3144549134065865 -0.02408675326008025 0  -0.2898414972096258 -0.3336092734780093 0  -0.1075052092206287 -0.4224330421314983 0  -0.05043970703604117 -0.1652278959397459 0  0.6459672950297897 -0.1113415301525317 0  0.4645210271029513 0.6398480556579343 0  0.3512863754411909 0.0937979496253573 0  -0.6063160985568274 0.03891469652249891 0  -0.3428819444444445 0.8690476190476191 0  0.625 1 0  -0.1602164796159982 0.02697860906625157 0  0.04648110064133829 -0.4808416424239687 0  1 0.875 0  -0.3836102479201657 0.6484936449177356 0  -0.3776011723096096 0.263078478984336 0  -0.6024978259969829 -0.3949628096211138 0  0.125 1 0  0.2010781308272777 0.8456221018461906 0  0.2822509696388829 -0.845902544691141 0  -0.3285533674953515 -0.6289773550938936 0  0.3461306793221754 0.278777492464833 0  0.4737475672408696 -0.8508448959534423 0  0.2384632828836344 -0.7029523187242811 0  -0.004777287059791593 0.3759269695907358 0  -0.8499735021850066 -0.3912320205328522 0  0.1222536293721587 0.2963971539625205 0  -0.3769456520999688 -0.203572526805711 0  -0.2749617205755651 -0.8464290792698902 0  0.004805888512766143 -0.747174355248311 0  -0.125 -1 0  -0.06001061822252458 -0.8724007765244854 0  0.875 0.4375 0  0.854421179608893 0.271342359217786 0  0.875 1 0  -0.1499861095763589 0.2358309656934888 0  0.3381943639137225 0.8663061796405532 0  -0.7853090110442228 0.4998412775277108 0  0.7398165998560814 -0.5535192694951373 0  0.1580042122341573 -0.3100246140259917 0  -0.7291666666666667 -0.7142857142857142 0  -0.375 -1 0  0.6483368386154684 0.8514905990110488 0  -0.1295370103291928 -0.2826118305021242 0  0.07458201853700455 0.1123894386563915 0  0.6146465857036327 -0.3161203659316075 0  0.5551898493894731 -0.740296118159085 0  0.375 -1 0  0.482702798370208 -0.084133350091034 0  0.87890625 0.68359375 0  -0.05917195534525846 0.4971092425697621 0  0.1260710309213975 0.6343750312956699 0  0.8690476190476191 -0.3077066815262848 0  -0.2912010232560567 0.3668168386732139 0  -0.875 1 0  -1 0.875 0  1 -0.875 0  0.875 -1 0  -0.8689564281364567 -0.006189266075306407 0  -0.7449425635110547 0.08458938160051771 0  -0.7150266761936593 -0.1739444581417552 0  -0.5260034831318311 -0.711099823962112 0  -0.4724626808827322 -0.871722230709409 0  0.4734436795977052 0.377714794132168 0  -0.875 -1 0  -1 -0.875 0  0.6927189078571988 0.5156567235715964 0  -0.3742497615796874 -0.4296005251260107 0  -0.1969436423297711 -0.6387157229772615 0  -0.6179496409766825 -0.08933356056510935 0  -0.424405057115988 0.04452428810878029 0  -0.08479048335844169 0.1279607007132633 0  0.003830300099055113 0.8712085230656206 0  0.8748778838820267 -1.379218479898026e-05 0  -0.375 1 0  -0.625 1 0  1 0.125 0  -0.125 1 0  1 -0.375 0  1 -0.125 0  1 -0.625 0  0.625 -1 0  0.125 -1 0  -0.625 -1 0  -1 -0.625 0  -1 0.125 0  -1 0.375 0  -1 0.625 0  1 0.375 0  1 0.625 0  0.6325660748712082 0.3335187599557389 0  -0.06420945895056573 0.7549874027425891 0  -0.8769015540914771 0.2478802253893416 0  0.871875 0.871875 0  -0.6868091492840067 0.3270978624973681 0  -0.5363597469565949 0.412994850055505 0  -0.6803734992638302 0.5574295000651103 0  -0.7076253581162534 -0.8803439094224437 0  -0.8778089002295137 -0.5106896447504627 0  -0.3860184984222981 0.530566778071246 0  0.6109900617121508 0.1128453077697081 0  0.3896945134930274 -0.1915382873255086 0  0.7605656944697778 -0.06822134873122943 0  0.3576151269893478 0.5948388411612135 0  -0.5689902680792265 -0.5143596830118065 0  0.6262446286847614 -0.5735657901943212 0  0.2030558252325225 -0.5625263842513452 0  0.6123273142928579 0.7407533260723429 0  0.4016460890123554 -0.3042863223111857 0  -0.59039693199147 0.7578418819188018 0  0.7276932493917544 -0.3705808024528924 0  0.5222536818742854 -0.4713886230400014 0  -0.5101986527137737 0.8848365765607674 0  0.510560172809238 0.5356013299918891 0  -0.3603569195756083 0.75823710606415 0  0.1967279277813232 0.728226870058472 0  -0.6086880986371127 0.1545624071548516 0  -0.38105366729386 0.1511189987807864 0  -0.2944659463671584 -0.7359061804869591 0  0.5060729154966499 -0.3475227845833823 0  -0.09281616240412746 -0.06197858250969457 0  0.7649739583333334 0.6673177083333334 0  0.7628906249999999 0.890234375 0  -0.2666864184909611 0.2585504071132311 0  0.3635064892129658 0.3878003602709461 0  -0.2339409722222222 0.8901937905844155 0  -0.1718792125974916 -0.8957733325456778 0  0.1001768566329531 0.4023510017391879 0  0.3120260172693757 -0.4540546875576884 0  0.7804062804433681 0.1896628610854537 0  0.4087715451998049 0.187961780041608 0  -0.1584963477271457 0.5451611892421655 0  -0.8926817849258324 0.463022006336401 0  0.2338091473445219 -0.07576267331277289 0  0.08171112182813692 -0.2349087687359925 0  0.04635385178956847 -0.1044635073718474 0  -0.4377391632114205 -0.6448874471423088 0  -0.1907678351227189 0.6480215912813945 0  0.300605946475244 0.4741444604171038 0  -0.2145033720757486 -0.06751709909419711 0  0.6069191921170397 -0.005492331448357812 0  0.0214718770761248 0.6032397936031719 0  0.5476675683364878 0.8992752415326501 0  0.4387475014316537 0.9093708953002239 0  -0.4932997685306436 -0.4381009159993523 0  0.2515197695339056 -0.1791673369138964 0  -0.7291666666666667 -0.6088789682539681 0  -0.9166666666666667 -0.6875 0  0.620579540363709 -0.2122431523583302 0  -0.484950136419973 0.6719440339397442 0  0.2857044415400258 0.0137589173127316 0  -0.8945708364098356 -0.288306105327986 0  0.4043102720140535 0.7842914560451557 0  0.04123256238752064 -0.9026968245801402 0  0.2003676884403109 -0.9091888601740487 0  0.1068775558538842 -0.7373377130403223 0  -0.4804566783514427 -0.1763307203045643 0  0.108286342087769 -0.3993789328997278 0  -0.191883080105361 -0.3640821726430649 0  -0.07025064492006244 0.2984876656890053 0  -0.7039324641409584 0.788312126296613 0  -0.7311286585775438 0.8932502354831682 0  0.5171409396884947 0.1503852691889257 0  0.4229392823658633 -0.003216522184234835 0  -0.5621736087218259 -0.919558629836806 0  -0.626474064879544 -0.7266572613636506 0  0.2446828746617422 0.2867616783302419 0  0.1759429608742923 0.4776611759306416 0  -0.3468240303741654 -0.5260416435617549 0  -0.7465808808425306 0.4069574477998361 0  -0.7819962170660292 0.2802441065650652 0  -0.3742623214119594 -0.8547800509641984 0  0.1014498009713561 0.8506721983266377 0  0.4285217620918213 -0.5230190595570253 0  0.4091738370487775 -0.6256346204225141 0  0.78125 0.46875 0  0.90625 0.53125 0  -0.4791801348852565 0.2553992655702126 0  0.7843318610782772 -0.7086046956885941 0  0.8909728264971901 -0.7355183796514634 0  0.7041908166528879 -0.7830649143180282 0  0.7311821352
[...]
<PointData  Vectors="f_22"> 
<DataArray  type="Float64"  Name="f_22"  NumberOfComponents="3" format="ascii">-2.8154474568853260e-03 -2.8606007461812561e-03 0.0000000000000000e+00  -2.8154474568853260e-03 -2.8606007461812561e-03 0.0000000000000000e+00  -2.8154474568853260e-03 -2.8606007461812561e-03 0.0000000000000000e+00  -2.8154474568853260e-03 -2.8606007461812561e-03 0.0000000000000000e+00  -2.8152665918775529e-03 -2.9437890617128627e-03 0.0000000000000000e+00  -2.9049170910601398e-03 -2.8603823129340453e-03 0.0000000000000000e+00  -2.8152665918775529e-03 -2.9437890617128627e-03 0.0000000000000000e+00  -2.9049170910601398e-03 -2.8603823129340453e-03 0.0000000000000000e+00  -2.9050750973158529e-03 -2.9440166381508462e-03 0.0000000000000000e+00  -2.1116212363859982e-03 -2.8604794648577543e-03 0.0000000000000000e+00  -2.8153595152988972e-03 -2.1536890868692187e-03 0.0000000000000000e+00  -2.8153595152988972e-03 -2.1536890868692187e-03 0.0000000000000000e+00  -3.6087525481377967e-03 -2.8604662362365844e-03 0.0000000000000000e+00  -2.1116212363859982e-03 -2.8604794648577543e-03 0.0000000000000000e+00  -2.8153351546136847e-03 -3.6507481083833206e-03 0.0000000000000000e+00  -3.6087525481377967e-03 -2.8604662362365844e-03 0.0000000000000000e+00  -2.8153351546136847e-03 -3.6507481083833206e-03 0.0000000000000000e+00  -2.1486400475270286e-03 -3.6359555092460270e-03 0.0000000000000000e+00  -3.5947363658576678e-03 -2.1899083432219543e-03 0.0000000000000000e+00  -2.1117095141368748e-03 -2.4024559517316765e-03 0.0000000000000000e+00  -3.4212501900855946e-03 -3.6507979161954215e-03 0.0000000000000000e+00  -2.7419527798972464e-03 -2.1562380199698556e-03 0.0000000000000000e+00  -3.6075540637129293e-03 -3.1136466088010793e-03 0.0000000000000000e+00  -2.1515748047964550e-03 -2.1948114348583725e-03 0.0000000000000000e+00  -3.5347010296007345e-03 -3.5778774104949936e-03 0.0000000000000000e+00  -2.3624675141868446e-03 -3.4224205263802677e-03 0.0000000000000000e+00  -3.3552758841856466e-03 -2.2849880697451974e-03 0.0000000000000000e+00  -3.3783063037279345e-03 -2.4023199582674203e-03 0.0000000000000000e+00  -2.1592763045426670e-03 -3.1849092450064063e-03 0.0000000000000000e+00  -2.2007995171009946e-03 -3.5157715135718591e-03 0.0000000000000000e+00  -3.4721234330062785e-03 -2.2445162508777810e-03 0.0000000000000000e+00  -2.7419624194528749e-03 -3.5854593849940089e-03 0.0000000000000000e+00  -2.2742938444687017e-03 -2.3081135263328801e-03 0.0000000000000000e+00  -3.3925209706282614e-03 -3.5498031090027684e-03 0.0000000000000000e+00  -2.2484274678859582e-03 -2.9920494495677382e-03 0.0000000000000000e+00  -3.2350310328238545e-03 -2.3698431313855664e-03 0.0000000000000000e+00  -2.2652541531730319e-03 -3.6177525010319821e-03 0.0000000000000000e+00  -2.5049171372412385e-03 -2.4519287243821128e-03 0.0000000000000000e+00  -3.3152806363191956e-03 -3.4085517078754441e-03 0.0000000000000000e+00  -3.5689669390778700e-03 -3.4020425409738131e-03 0.0000000000000000e+00  -2.3154444294619806e-03 -2.6093727265575012e-03 0.0000000000000000e+00  -3.0048612822014351e-03 -3.4697269932810722e-03 0.0000000000000000e+00  -2.8154072716704815e-03 -2.3435365775933419e-03 0.0000000000000000e+00  -2.2992673300867381e-03 -2.8605642006906910e-03 0.0000000000000000e+00  -3.3578429717441675e-03 -2.8605427910642152e-03 0.0000000000000000e+00  -2.8154123227507482e-03 -3.4020496301282307e-03 0.0000000000000000e+00  -2.7963456452549020e-03 -2.3340386194589131e-03 0.0000000000000000e+00  -2.2314124205445643e-03 -2.1645054437447334e-03 0.0000000000000000e+00  -3.6099101606228250e-03 -3.6307393933409631e-03 0.0000000000000000e+00  -2.8152870717476327e-03 -3.4609308576709313e-03 0.0000000000000000e+00  -2.8152875080702574e-03 -2.4023491868505370e-03 0.0000000000000000e+00  -2.8154072716704815e-03 -2.3435365775933419e-03 0.0000000000000000e+00  -2.8154123227507482e-03 -3.4020496301282307e-03 0.0000000000000000e+00  -2.3624877685066051e-03 -2.8604195739494937e-03 0.0000000000000000e+00  -3.4211233690600810e-03 -2.8604070951907760e-03 0.0000000000000000e+00  -2.3624877685066051e-03 -2.8604195739494937e-03 0.0000000000000000e+00  -2.8152875080702574e-03 -2.4023491868505370e-03 0.0000000000000000e+00  -2.2992673300867381e-03 -2.8605642006906910e-03 0.0000000000000000e+00  -3.3578429717441675e-03 -2.8605427910642152e-03 0.0000000000000000e+00  -2.8152870717476327e-03 -3.4609308576709313e-03 0.0000000000000000e+00  -3.4211233690600810e-03 -2.8604070951907760e-03 0.0000000000000000e+00  -2.3147076503760764e-03 -2.1997740297038165e-03 0.0000000000000000e+00  -3.3438128277081709e-03 -3.0948038204270381e-03 0.0000000000000000e+00  -3.5754700687245576e-03 -2.5839427943416945e-03 0.0000000000000000e+00  -3.6040701722113689e-03 -2.2189366005006162e-03 0.0000000000000000e+00  -3.2489816001917398e-03 -2.1547386712558797e-03 0.0000000000000000e+00  -3.3115764921197014e-03 -2.1597829346682281e-03 0.0000000000000000e+00  -2.1258403507641911e-03 -3.5617528723203072e-03 0.0000000000000000e+00  -2.4249162037397040e-03 -3.6474751643736023e-03 0.0000000000000000e+00  -3.3774854750056411e-03 -2.9386685576196425e-03 0.0000000000000000e+00  -2.5549511449191615e-03 -3.2793890367065798e-03 0.0000000000000000e+00  -2.1326369956862954e-03 -3.3789560137354787e-03 0.0000000000000000e+00  -3.5320168784828518e-03 -2.7449686361067727e-03 0.0000000000000000e+00  -3.5601710605784758e-03 -2.4984426925083823e-03 0.0000000000000000e+00  -2.1515442227794386e-03 -2.4919243879733084e-03 0.0000000000000000e+00  -2.4272974872782257e-03 -2.1742192822139668e-03 0.0000000000000000e+00  -2.1113305105166058e-03 -2.1711977134907467e-03 0.0000000000000000e+00  -3.5856936902925753e-03 -3.2834099540461001e-03 0.0000000000000000e+00  -3.3004878268561169e-03 -3.3448845456188385e-03 0.0000000000000000e+00  -3.2744057334602298e-03 -3.6492880811828596e-03 0.0000000000000000e+00  -2.4567505298524711e-03 -3.2271089802840777e-03 0.0000000000000000e+00  -2.4183939234513744e-03 -2.4630877536913984e-03 0.0000000000000000e+00  -2.1248901209565086e-03 -2.7615067757870066e-03 0.0000000000000000e+00  -3.0208438954298826e-03 -3.6493628123757042e-03 0.0000000000000000e+00  -2.3183948109438343e-03 -3.5216816865698722e-03 0.0000000000000000e+00  -2.1286785046651041e-03 -3.6485252256101279e-03 0.0000000000000000e+00  -2.4978801373372115e-03 -3.5777827745044951e-03 0.0000000000000000e+00  -2.4134036509024510e-03 -3.2765830951411896e-03 0.0000000000000000e+00  -3.5781920123894163e-03 -2.1524632131795863e-03 0.0000000000000000e+00  -3.5345924821654925e-03 -2.5427318391989572e-03 0.0000000000000000e+00  -3.2324207576762453e-03 -2.4565627474642023e-03 0.0000000000000000e+00  -2.1514526030131887e-03 -3.1863369012191758e-03 0.0000000000000000e+00  -3.5953518490901499e-03 -2.3702006101281869e-03 0.0000000000000000e+00  -2.1311707987204144e-03 -3.2592785847625301e-03 0.0000000000000000e+00  -3.6061492524753400e-03 -3.6144702316305210e-03 0.0000000000000000e+00  -2.6150207453553187e-03 -3.1631756378714447e-03 0.0000000000000000e+00  -3.1183189092364571e-03 -2.6541824057160625e-03 0.0000000000000000e+00  -3.1879555476247313e-03 -2.5650047741890489e-03 0.0000000000000000e+00  -3.1879869305242591e-03 -3.1618220037284554e-03 0.0000000000000000e+00  -3.1137485195864073e-03 -2.1947263314345843e-03 0.0000000000000000e+00  -3.5783886020921856e-03 -3.4351801666672060e-03 0.0000000000000000e+00  -3.5837938524543316e-03 -3.4537343928797573e-03 0.0000000000000000e+00  -2.9525168136411372e-03 -3.3252351898557710e-03 0.0000000000000000e+00  -2.1178111121098056e-03 -3.5616401014889011e-03 0.0000000000000000e+00  -2.1155295300439698e-03 -2.3120204355071739e-03 0.0000000000000000e+00  -2.1857163781978410e-03 -2.8604394138893713e-03 0.0000000000000000e+00  -2.4315542269804590e-03 -2.1673772946576939e-03 0.0000000000000000e+00  -3.3646772905066803e-03 -3.5208562140493335e-03 0.0000000000000000e+00  -2.8153098699698498e-03 -3.6096957106115340e-03 0.0000000000000000e+00  -3.4901438101182735e-03 -2.1631018576884868e-03 0.0000000000000000e+00  -2.6150399578969519e-03 -2.8603739889923470e-03 0.0000000000000000e+00  -2.4815179221185243e-03 -2.5157699042325610e-03 0.0000000000000000e+00  -2.8483584864921361e-03 -2.3003213863388296e-03 0.0000000000000000e+00  -2.2340670396575682e-03 -2.3366869875989555e-03 0.0000000000000000e+00  -2.1446102387843655e-03 -2.6936073306280338e-03 0.0000000000000000e+00  -2.5278471808799336e-03 -2.8253639347021434e-03 0.0000000000000000e+00  -2.6456777333311440e-03 -3.5548374204812266e-03 0.0000000000000000e+00  -3.5186611816062272e-03 -3.6508059828729809e-03 0.0000000000000000e+00  -3.1205497749404029e-03 -3.5893848589931159e-03 0.0000000000000000e+00  -2.9959340504277848e-03 -2.1813264173430203e-03 0.0000000000000000e+00  -3.1183321672902890e-03 -2.2627211756182921e-03 0.0000000000000000e+00  -2.8153592245039167e-03 -3.5778333828233766e-03 0.0000000000000000e+00  -2.9682854110548162e-03 -2.5777870358346497e-03 0.0000000000000000e+00  -2.1156695925727436e-03 -3.0523970414058675e-03 0.0000000000000000e+00  -3.1052902104819189e-03 -2.8605563887886933e-03 0.0000000000000000e+00  -3.5084558888937981e-03 -2.2179961884009926e-03 0.0000000000000000e+00  -3.4410932844608604e-03 -2.2239567549059429e-03 0.0000000000000000e+00  -2.1666239355917108e-03 -2.1790339081968692e-03 0.0000000000000000e+00  -2.8152751677306726e-03 -3.2270857085273507e-03 0.0000000000000000e+00  -3.1694580534170312e-03 -3.3778265473345388e-03 0.0000000000000000e+00  -2.4720474410050435e-03 -3.5086008363761547e-03 0.0000000000000000e+00  -2.1546526199003792e-03 -2.2810857913451031e-03 0.0000000000000000e+00  -3.4639251942533899e-03 -3.5844546983291336e-03 0.0000000000000000e+00  -2.4820712531249981e-03 -3.6515887211042665e-03 0.0000000000000000e+00  -2.2319136492026208e-03 -3.4424280876214730e-03 0.0000000000000000e+00  -3.5696545712657346e-03 -2.9327274539234218e-03 0.0000000000000000e+00  -2.1699365394676007e-03 -2.5251940415530333e-03 0.0000000000000000e+00  -3.4875953829314049e-03 -3.2214666114285225e-03 0.0000000000000000e+00  -2.4494785975748778e-03 -2.2247239978569950e-03 0.0000000000000000e+00  -2.4731876055919632e-03 -2.3601483189647702e-03 0.0000000000000000e+00  -2.2947323463795755e-03 -2.9551263224482436e-03 0.0000000000000000e+00  -2.8152659217880612e-03 -2.6542000334932358e-03 0.0000000000000000e+00  -2.5267438279060702e-03 -2.8027863909938790e-03 0.0000000000000000e+00  -3.6031353769641521e-03 -3.1501263335756958e-03 0.0000000000000000e+00  -3.4532433739555444e-03 -3.1952655129815072e-03 0.0000000000000000e+00  -2.8154214283118012e-03 -3.1501795807495720e-03 0.0000000000000000e+00  -3.3985142864283923e-03 -2.5996281472605008e-03 0.0000000000000000e+00  -3.1244912819287296e-03 -3.5763938174426641e-03 0.0000000000000000e+00  -3.6086996061760151e-03 -2.4021308803916152e-03 0.0000000000000000e+00  -2.1146143848011626e-03 -3.4195370255546116e-03 0.0000000000000000e+00  -2.2662375620018447e-03 -3.2954193553861155e-03 0.0000000000000000e+00  -2.2471136730070830e-03 -2.3120593708645977e-03 0.0000000000000000e+00  -2.8153211042682823e-03 -2.2265924982431597e-03 0.0000000000000000e+00  -3.1569005671885338e-03 -3.5522426433983291e-03 0.0000000000000000e+00  -2.3078653984777873e-03 -2.6443331576915256e-03 0.0000000000000000e+00  -3.1611754055247414e-03 -3.1166651794004596e-03 0.0000000000000000e+00  -2.2574788572042731e-03 -3.5878945467780797e-03 0.0000000000000000e+00  -2.2841991807689161e-03 -3.6322648838100330e-03 0.0000000000000000e+00  -2.8153098699698498e-03 -3.6096957106115340e-03 0.0000000000000000e+00  -2.7078520300660384e-03 -3.6518800765849109e-03 0.0000000000000000e+00  -3.4632614345994936e-03 -3.1414747533684098e-03 0.0000000000000000e+00  -3.6090884798077854e-03 -2.8048475432217602e-03 0.0000000000000000e+00  -3.5246447287170450e-03 -3.2294660521730487e-03 0.0000000000000000e+00  -2.2694800156450924e-03 -3.1631755882612911e-03 0.0000000000000000e+00  -3.5623280321187213e-03 -2.3344349408805924e-03 0.0000000000000000e+00  -2.8154399190598663e-03 -2.5773461385184071e-03 0.0000000000000000e+00  -3.1052902104819189e-03 -2.8605563887886933e-03 0.0000000000000000e+00  -2.5324111417791635e-03 -2.8605942087719604e-03 0.0000000000000000e+00  -2.8154214283118012e-03 -3.1501795807495720e-03 0.0000000000000000e+00  -2.8903646631034509e-03 -2.5643692355121045e-03 0.0000000000000000e+00  -3.0999663819238619e-03 -2.3354724490448585e-03 0.0000000000000000e+00  -2.5094578428697715e-03 -2.2919943852832796e-03 0.0000000000000000e+00  -2.2427971331613447e-03 -2.1528637348185477e-03 0.0000000000000000e+00  -2.5254687453109487e-03 -2.1601207508954059e-03 0.0000000000000000e+00  -3.5710789032848697e-03 -3.6516956145480712e-03 0.0000000000000000e+00  -2.8154399190598663e-03 -2.5773461385184071e-03 0.0000000000000000e+00  -2.5324111417791635e-03 -2.8605942087719604e-03 0.0000000000000000e+00  -3.6057252392873379e-03 -3.4940091884054524e-03 0.0000000000000000e+00  -2.1397911041879233e-03 -2.2274682777678268e-03 0.0000000000000000e+00  -2.1627040855212924e-03 -2.5020564616628190e-03 0.0000000000000000e+00  -2.6959102694858279e-03 -2.1893736201103950e-03 0.0000000000000000e+00  -3.0089456559746972e-03 -2.1845181181044337e-03 0.0000000000000000e+00  -3.1944090220454805e-03 -2.7455021575264970e-03 0.0000000000000000e+00  -3.1135210262771803e-03 -2.9528192085688460e-03 0.0000000000000000e+00  -2.9048818924514567e-03 -3.1502701989975963e-03 0.0000000000000000e+00  -2.8153211042682823e-03 -2.2265924982431597e-03 0.0000000000000000e+00  -2.8153698061494856e-03 -2.1947599422477448e-03 0.0000000000000000e+00  -3.1879527139705367e-03 -2.8603958762209373e-03 0.0000000000000000e+00  -2.8152659217880612e-03 -2.6542000334932358e-03 0.0000000000000000e+00  -2.1857163781978410e-03 -2.8604394138893713e-03 0.0000000000000000e+00  -2.6150399578969519e-03 -2.8603739889923470e-03 0.0000000000000000e+00  -2.1515008075803609e-03 -2.8605054787373282e-03 0.0000000000000000e+00  -2.8153592245039167e-03 -3.5778333828233766e-03 0.0000000000000000e+00  -2.8152751677306726e-03 -3.2270857085273507e-03 0.0000000000000000e+00  -2.8153698061494856e-03 -2.1947599422477448e-03 0.0000000000000000e+00  -2.1515008075803609e-03 -2.8605054787373282e-03 0.0000000000000000e+00  -3.1879527139705367e-03 -2.8603958762209373e-03 0.0000000000000000e+00  -3.5688938840609794e-03 -2.8604417088586103e-03 0.0000000000000000e+00  -3.5346433562818964e-03 -2.8605208032725779e-03 0.0000000000000000e+00  -3.5688938840609794e-03 -2.8604417088586103e-03 0.0000000000000000e+00  -3.5346433562818964e-03 -2.8605208032725779e-03 0.0000000000000000e+00  -3.5311428745638655e-03 -3.5699255759484389e-03 0.0000000000000000e+00  -3.3488497859943300e-03 -2.7930079043415497e-03 0.0000000000000000e+00  -3.4177955713825150e-03 -2.5811613273131338e-03 0.0000000000000000e+00  -3.1122596265095799e-03 -3.1571064529469436e-03 0.0000000000000000e+00  -3.5240864855800962e-03 -2.2557395083201877e-03 0.0000000000000000e+00  -3.5929499584726960e-03 -2.1537219617406914e-03 0.0000000000000000e+00  -3.5884612294133211e-03 -2.2482378749411353e-03 0.0000000000000000e+00  -2.5437669288380176e-03 -2.2821568173183840e-03 0.0000000000000000e+00  -2.1105867998114864e-03 -2.5832433126130256e-03 0.0000000000000000e+00  -3.6008744453144182e-03 -2.2156923503287851e-03 0.0000000000000000e+00  -3.1621009808893872e-03 -3.5914277937065323e-03 0.0000000000000000e+00  -2.4733581165229928e-03 -3.6203981032087835e-03 0.0000000000000000e+00  -2.7446791536564429e-03 -3.3830567691113989e-03 0.0000000000000000e+00  -3.5626726673632513e-03 -3.5951985274028336e-03 0.0000000000000000e+00  -2.1104782846019521e-03 -2.1623266542869259e-03 0.0000000000000000e+00  -2.1211759173948011e-03 -3.5764252943612787e-03 0.0000000000000000e+00  -2.1171953104375217e-03 -3.3814241495934592e-03 0.0000000000000000e+00  -3.3739556927243164e-03 -3.5902708820491477e-03 0.0000000000000000e+00  -2.2744987721169084e-03 -3.6279274177787586e-03 0.0000000000000000e+00  -3.3437320559409453e-03 -2.1719583799277259e-03 0.0000000000000000e+00  -2.1902688974532818e-03 -3.4397657809347691e-03 0.0000000000000000e+00  -2.1185670636915087e-03 -3.6458973253471012e-03 0.0000000000000000e+00  -3.0831416917031754e-03 -2.1527137963629470e-03 0.0000000000000000e+00  -3.5991600346521853e-03 -3.6490239343975957e-03 0.0000000000000000e+00  -3.3429773054555259e-03 -2.2422036912132649e-03 0.0000000000000000e+00  -3.3949667200801688e-03 -3.3699109886326903e-03 0.0000000000000000e+00  -3.2491182819725920e-03 -2.1828595436339236e-03 0.0000000000000000e+00  -3.2422234343101120e-03 -2.2205599320130414e-03 0.0000000000000000e+00  -2.2777549964070258e-03 -2.3294774047073839e-03 0.0000000000000000e+00  -2.2164430092580624e-03 -3.6497159169451582e-03 0.0000000000000000e+00  -2.7594064334751731e-03 -2.7270715342168433e-03 0.0000000000000000e+00  -3.4852764602999659e-03 -3.3752364243075164e-03 0.0000000000000000e+00  -3.0711014518522658e-03 -3.3790378048195362e-03 0.0000000000000000e+00  -3.4343225780289694e-03 -2.3738246391413176e-03 0.0000000000000000e+00  -3.5782962716137561e-03 -3.6004126085991761e-03 0.0000000000000000e+00  -3.0709958260324226e-03 -2.4311393948314606e-03 0.0000000000000000e+00  -2.5769538478223543e-03 -2.5530756963907477e-03 0.0000000000000000e+00  -3.5873845165948020e-03 -3.1736527322222363e-03 0.0000000000000000e+00  -2.1257793696352308e-03 -3.5471428010050276e-03 0.0000000000000000e+00  -3.3173694573736625e-03 -3.3463674453769218e-03 0.0000000000000000e+00  -3.3143072769379342e-03 -3.6320728000783543e-03 0.0000000000000000e+00  -3.5948016039382760e-03 -2.5813058588641503e-03 0.0000000000000000e+00  -3.6088588748366193e-03 -2.6151788341570387e-03 0.0000000000000000e+00  -2.7273147021825311e-03 -3.4349385875596244e-03 0.0000000000000000e+00  -2.3897516458140752e-03 -3.1326856786505039e-03 0.0000000000000000e+00  -2.6614265456416553e-03 -3.0522069600560742e-03 0.0000000000000000e+00  -2.1682432847787859e-03 -2.1761379894040755e-03 0.0000000000000000e+00  -3.5090439428387692e-03 -2.5143448663292427e-03 0.0000000000000000e+00  -3.6099975003516566e-03 -3.5331549279992670e-03 0.0000000000000000e+00  -2.7464972869976232e-03 -2.4678044145096047e-03 0.0000000000000000e+00  -2.8920517258630178e-03 -3.5951057478910238e-03 0.0000000000000000e+00  -3.5553886880585733e-03 -2.9942623170277219e-03 0.0000000000000000e+00  -3.0505431554201825e-03 -3.6361829347991243e-03 0.0000000000000000e+00  -3.0274181937626440e-03 -3.6449136832802341e-03 0.0000000000000000e+00  -2.1345030586478785e-03 -2.1548222099954818e-03 0.0000000000000000e+00  -2.4986538810770685e-03 -3.4634058285644641e-03 0.0000000000000000e+00  -2.1400664025914076e-03 -2.3120550795835289e-03 0.0000000000000000e+00  -2.2129686404689917e-03 -2.6682853107074349e-03 0.0000000000000000e+00  -2.4323505116442129e-03 -3.5821400624851704e-03 0.0000000000000000e+00  -3.4789858723555688e-03 -2.1564231811956897e-03 0.0000000000000000e+00  -2.9373767327644231e-03 -3.5135035262337804e-03 0.0000000000000000e+00  -2.2987735295359065e-03 -2.6193200457773898e-03 0.0000000000000000e+00  -3.2946432840410553e-03 -3.6295522486113978e-03 0.0000000000000000e+00  -2.5920697212704559e-03 -3.0401223754223847e-03 0.0000000000000000e+00  -2.6064140745315355e-03 -3.3765167704813627e-03 0.0000000000000000e+00  -2.2797555924389834e-03 -3.1881416507119793e-03 0.0000000000000000e+00  -2.5045921496788322e-03 -2.1577093276689326e-03 0.0000000000000000e+00  -2.1626393926769886e-03 -3.1913017407861470e-03 0.0000000000000000e+00  -2.1974824503513896e-03 -2.5122621801446157e-03 0.0000000000000000e+00  -3.4902298668607963e-03 -2.7791140691253045e-03 0.0000000000000000e+00  -3.2867880091322190e-03 -2.2772198457084660e-03 0.0000000000000000e+00  -3.0642022498051078e-03 -2.3148707610306136e-03 0.0000000000000000e+00  -3.2407926225536442e-03 -3.6474397348505673e-03 0.0000000000000000e+00  -2.8974508811274815e-03 -3.6389371149407532e-03 0.0000000000000000e+00  -2.6296734738902460e-03 -2.1598729680159003e-03 0.0000000000000000e+00  -2.2643576691130270e