<?xml version="1.0"?>
<VTKFile type="UnstructuredGrid"  version="0.1"  >
<UnstructuredGrid>
<Piece  NumberOfPoints="1380" NumberOfCells="2630">
<Points>
<DataArray  type="Float64"  NumberOfComponents="3"  format="ascii">-1 -1 0  1 -1 0  1 1 0  -1 1 0  0 -1 0  1 0 0  0 1 0  -1 0 0  0 0 0  -1 -0.5 0  -0.5 -1 0  -0.5 1 0  -1 0.5 0  1 -0.5 0  0.5 -1 0  1 0.5 0  0.5 1 0  0.4166666666666666 -0.4166666666666667 0  -0.4166666666666667 0.4166666666666667 0  -0.25 -0.5 0  0.5 0.25 0  -0.4861111111111112 -0.06944444444444445 0  0.0732758620689655 0.507183908045977 0  -0.625 -0.625 0  0.625 0.625 0  0.7380952380952381 -0.25 0  -0.7099116161616161 0.2105429292929293 0  -0.25 0.7380952380952381 0  0.105392156862745 -0.6348039215686275 0  0.6770833333333334 -0.6770833333333333 0  -0.6770833333333334 0.6770833333333334 0  0.3472222222222222 -0.06944444444444446 0  -0.7264957264957265 -0.3044871794871795 0  0.3141940982507127 0.7297313660835709 0  0.02049587951122483 -0.3227479397556124 0  -0.2690972222222223 0.1475694444444444 0  0.3859500089908372 -0.7274430156831472 0  -0.2228477945123298 -0.1761765495248019 0  0.2182539682539683 0.1884920634920635 0  0.75 0.375 0  -0.145442219440968 -0.7602211097204841 0  0.7088913690476191 0.0427827380952381 0  -0.75 -1 0  -1 -0.75 0  1 0.75 0  0.75 1 0  -0.7439982703698937 -0.04614153195464455 0  -0.4609235096577606 -0.3356498099556895 0  0.4063134471431929 0.4895621842856023 0  0.25 -1 0  -0.25 -1 0  -0.75 1 0  0.75 -1 0  -1 -0.25 0  -1 0.25 0  1 -0.25 0  -0.25 1 0  1 -0.75 0  -1 0.75 0  0.25 1 0  1 0.25 0  -0.4041423272138783 -0.7597141090712928 0  0.06500839607911253 0.7578103030529481 0  -0.1572801182352047 0.3838997021864289 0  -0.6528005242053915 0.4409494757946086 0  -0.4930160984848485 0.1544744318181818 0  -0.4732142857142858 0.7752976190476191 0  0.6398809523809523 -0.4538690476190476 0  0.5166054117396399 -0.2161233620965164 0  -0.002273787244753427 0.2232363985975174 0  0.1500564496765022 -0.1524955293952667 0  0.2016720420046758 -0.4410343282803009 0  -0.08495178036419618 0.6274139771124571 0  -0.8367311471133162 0.3642591720794645 0  -0.8333333333333334 -0.625 0  -0.594323836800685 -0.8231079456002283 0  -0.4466957714776065 -0.5349126855671806 0  0.8125 0.5625 0  0.78125 0.78125 0  0.5091392650016769 0.7947130883338923 0  0.125 -0.8382681931833136 0  -0.8184523809523809 -0.8184523809523809 0  -0.07781530426104531 -0.5819319697006881 0  0.5085055196703295 0.04967610411902112 0  0.2918471072074933 -0.276017202318847 0  0.5120763537765269 -0.5898771553229597 0  0.625 -0.8585349462365591 0  0.8158532234335381 -0.8158532234335381 0  -0.5198088446315396 0.5739411553684605 0  -0.8585349462365591 0.625 0  -0.8150493805516597 0.8156205699829586 0  0.8585349462365591 -0.625 0  -0.2688268348649726 0.5439331383603209 0  0.8242100426758139 -0.4436043596336612 0  0.5833756314287952 0.4479378157143976 0  0.8690476190476191 -0.125 0  -0.125 0.8690476190476191 0  -0.8692745600729823 0.125 0  0.8696725120759167 0.125 0  -0.625 0.8711516477451908 0  0.2339522463269718 0.3879558377955778 0  0.2453709502295031 0.5655822922838026 0  0.1730610651637797 0.02021709580868947 0  0.3245402594056757 -0.5644672020485209 0  -0.7291666666666666 -0.4816595441595442 0  -1 -0.375 0  -0.5811140848639904 -0.2127276307675001 0  0.673332592838314 0.2158348143233718 0  0.375 1 0  -0.5714768890989919 0.2985103444040069 0  -1 -0.125 0  -0.8453692574786325 -0.1875 0  -0.3144549134065865 -0.02408675326008025 0  -0.2898414972096258 -0.3336092734780093 0  -0.1075052092206287 -0.4224330421314983 0  -0.05043970703604117 -0.1652278959397459 0  0.6459672950297897 -0.1113415301525317 0  0.4645210271029513 0.6398480556579343 0  0.3512863754411909 0.0937979496253573 0  -0.6063160985568274 0.03891469652249891 0  -0.3428819444444445 0.8690476190476191 0  0.625 1 0  -0.1602164796159982 0.02697860906625157 0  0.04648110064133829 -0.4808416424239687 0  1 0.875 0  -0.3836102479201657 0.6484936449177356 0  -0.3776011723096096 0.263078478984336 0  -0.6024978259969829 -0.3949628096211138 0  0.125 1 0  0.2010781308272777 0.8456221018461906 0  0.2822509696388829 -0.845902544691141 0  -0.3285533674953515 -0.6289773550938936 0  0.3461306793221754 0.278777492464833 0  0.4737475672408696 -0.8508448959534423 0  0.2384632828836344 -0.7029523187242811 0  -0.004777287059791593 0.3759269695907358 0  -0.8499735021850066 -0.3912320205328522 0  0.1222536293721587 0.2963971539625205 0  -0.3769456520999688 -0.203572526805711 0  -0.2749617205755651 -0.8464290792698902 0  0.004805888512766143 -0.747174355248311 0  -0.125 -1 0  -0.06001061822252458 -0.8724007765244854 0  0.875 0.4375 0  0.854421179608893 0.271342359217786 0  0.875 1 0  -0.1499861095763589 0.2358309656934888 0  0.3381943639137225 0.8663061796405532 0  -0.7853090110442228 0.4998412775277108 0  0.7398165998560814 -0.5535192694951373 0  0.1580042122341573 -0.3100246140259917 0  -0.7291666666666667 -0.7142857142857142 0  -0.375 -1 0  0.6483368386154684 0.8514905990110488 0  -0.1295370103291928 -0.2826118305021242 0  0.07458201853700455 0.1123894386563915 0  0.6146465857036327 -0.3161203659316075 0  0.5551898493894731 -0.740296118159085 0  0.375 -1 0  0.482702798370208 -0.084133350091034 0  0.87890625 0.68359375 0  -0.05917195534525846 0.4971092425697621 0  0.1260710309213975 0.6343750312956699 0  0.8690476190476191 -0.3077066815262848 0  -0.2912010232560567 0.3668168386732139 0  -0.875 1 0  -1 0.875 0  1 -0.875 0  0.875 -1 0  -0.8689564281364567 -0.006189266075306407 0  -0.7449425635110547 0.08458938160051771 0  -0.7150266761936593 -0.1739444581417552 0  -0.5260034831318311 -0.711099823962112 0  -0.4724626808827322 -0.871722230709409 0  0.4734436795977052 0.377714794132168 0  -0.875 -1 0  -1 -0.875 0  0.6927189078571988 0.5156567235715964 0  -0.3742497615796874 -0.4296005251260107 0  -0.1969436423297711 -0.6387157229772615 0  -0.6179496409766825 -0.08933356056510935 0  -0.424405057115988 0.04452428810878029 0  -0.08479048335844169 0.1279607007132633 0  0.003830300099055113 0.8712085230656206 0  0.8748778838820267 -1.379218479898026e-05 0  -0.375 1 0  -0.625 1 0  1 0.125 0  -0.125 1 0  1 -0.375 0  1 -0.125 0  1 -0.625 0  0.625 -1 0  0.125 -1 0  -0.625 -1 0  -1 -0.625 0  -1 0.125 0  -1 0.375 0  -1 0.625 0  1 0.375 0  1 0.625 0  0.6325660748712082 0.3335187599557389 0  -0.06420945895056573 0.7549874027425891 0  -0.8769015540914771 0.2478802253893416 0  0.871875 0.871875 0  -0.6868091492840067 0.3270978624973681 0  -0.5363597469565949 0.412994850055505 0  -0.6803734992638302 0.5574295000651103 0  -0.7076253581162534 -0.8803439094224437 0  -0.8778089002295137 -0.5106896447504627 0  -0.3860184984222981 0.530566778071246 0  0.6109900617121508 0.1128453077697081 0  0.3896945134930274 -0.1915382873255086 0  0.7605656944697778 -0.06822134873122943 0  0.3576151269893478 0.5948388411612135 0  -0.5689902680792265 -0.5143596830118065 0  0.6262446286847614 -0.5735657901943212 0  0.2030558252325225 -0.5625263842513452 0  0.6123273142928579 0.7407533260723429 0  0.4016460890123554 -0.3042863223111857 0  -0.59039693199147 0.7578418819188018 0  0.7276932493917544 -0.3705808024528924 0  0.5222536818742854 -0.4713886230400014 0  -0.5101986527137737 0.8848365765607674 0  0.510560172809238 0.5356013299918891 0  -0.3603569195756083 0.75823710606415 0  0.1967279277813232 0.728226870058472 0  -0.6086880986371127 0.1545624071548516 0  -0.38105366729386 0.1511189987807864 0  -0.2944659463671584 -0.7359061804869591 0  0.5060729154966499 -0.3475227845833823 0  -0.09281616240412746 -0.06197858250969457 0  0.7649739583333334 0.6673177083333334 0  0.7628906249999999 0.890234375 0  -0.2666864184909611 0.2585504071132311 0  0.3635064892129658 0.3878003602709461 0  -0.2339409722222222 0.8901937905844155 0  -0.1718792125974916 -0.8957733325456778 0  0.1001768566329531 0.4023510017391879 0  0.3120260172693757 -0.4540546875576884 0  0.7804062804433681 0.1896628610854537 0  0.4087715451998049 0.187961780041608 0  -0.1584963477271457 0.5451611892421655 0  -0.8926817849258324 0.463022006336401 0  0.2338091473445219 -0.07576267331277289 0  0.08171112182813692 -0.2349087687359925 0  0.04635385178956847 -0.1044635073718474 0  -0.4377391632114205 -0.6448874471423088 0  -0.1907678351227189 0.6480215912813945 0  0.300605946475244 0.4741444604171038 0  -0.2145033720757486 -0.06751709909419711 0  0.6069191921170397 -0.005492331448357812 0  0.0214718770761248 0.6032397936031719 0  0.5476675683364878 0.8992752415326501 0  0.4387475014316537 0.9093708953002239 0  -0.4932997685306436 -0.4381009159993523 0  0.2515197695339056 -0.1791673369138964 0  -0.7291666666666667 -0.6088789682539681 0  -0.9166666666666667 -0.6875 0  0.620579540363709 -0.2122431523583302 0  -0.484950136419973 0.6719440339397442 0  0.2857044415400258 0.0137589173127316 0  -0.8945708364098356 -0.288306105327986 0  0.4043102720140535 0.7842914560451557 0  0.04123256238752064 -0.9026968245801402 0  0.2003676884403109 -0.9091888601740487 0  0.1068775558538842 -0.7373377130403223 0  -0.4804566783514427 -0.1763307203045643 0  0.108286342087769 -0.3993789328997278 0  -0.191883080105361 -0.3640821726430649 0  -0.07025064492006244 0.2984876656890053 0  -0.7039324641409584 0.788312126296613 0  -0.7311286585775438 0.8932502354831682 0  0.5171409396884947 0.1503852691889257 0  0.4229392823658633 -0.003216522184234835 0  -0.5621736087218259 -0.919558629836806 0  -0.626474064879544 -0.7266572613636506 0  0.2446828746617422 0.2867616783302419 0  0.1759429608742923 0.4776611759306416 0  -0.3468240303741654 -0.5260416435617549 0  -0.7465808808425306 0.4069574477998361 0  -0.7819962170660292 0.2802441065650652 0  -0.3742623214119594 -0.8547800509641984 0  0.1014498009713561 0.8506721983266377 0  0.4285217620918213 -0.5230190595570253 0  0.4091738370487775 -0.6256346204225141 0  0.78125 0.46875 0  0.90625 0.53125 0  -0.4791801348852565 0.2553992655702126 0  0.7843318610782772 -0.7086046956885941 0  0.8909728264971901 -0.7355183796514634 0  0.7041908166528879 -0.7830649143180282 0  0.7311821352
[...]
<PointData  Vectors="f_22"> 
<DataArray  type="Float64"  Name="f_22"  NumberOfComponents="3" format="ascii">-2.6219465972505641e-03 -2.6873887046260734e-03 0.0000000000000000e+00  -2.6219465972505641e-03 -2.6873887046260734e-03 0.0000000000000000e+00  -2.6219465972505641e-03 -2.6873887046260734e-03 0.0000000000000000e+00  -2.6219465972505641e-03 -2.6873887046260734e-03 0.0000000000000000e+00  -2.6167724415513617e-03 -3.1167910206727220e-03 0.0000000000000000e+00  -3.0984167705822769e-03 -2.6805673987953618e-03 0.0000000000000000e+00  -2.6167724415513617e-03 -3.1167910206727220e-03 0.0000000000000000e+00  -3.0984167705822769e-03 -2.6805673987953618e-03 0.0000000000000000e+00  -3.1033738751815999e-03 -3.1234941063122360e-03 0.0000000000000000e+00  3.0341959540368746e-03 -2.6835817076795174e-03 0.0000000000000000e+00  -2.6191632673658212e-03 2.9914585171241089e-03 0.0000000000000000e+00  -2.6191632673658212e-03 2.9914585171241089e-03 0.0000000000000000e+00  -8.7546042370405877e-03 -2.6834402831870411e-03 0.0000000000000000e+00  3.0341959540368746e-03 -2.6835817076795174e-03 0.0000000000000000e+00  -2.6189081743113415e-03 -8.7958435488272348e-03 0.0000000000000000e+00  -8.7546042370405877e-03 -2.6834402831870411e-03 0.0000000000000000e+00  -2.6189081743113415e-03 -8.7958435488272348e-03 0.0000000000000000e+00  2.7736403102368175e-03 -8.6495011460676150e-03 0.0000000000000000e+00  -8.6132000426132841e-03 2.7361326253923352e-03 0.0000000000000000e+00  3.0317606892400354e-03 1.1093960674946682e-03 0.0000000000000000e+00  -7.2006485272270897e-03 -8.7975039504339589e-03 0.0000000000000000e+00  -1.8204657387220469e-03 2.9756901155052187e-03 0.0000000000000000e+00  -8.7482410410257699e-03 -4.4601499015783971e-03 0.0000000000000000e+00  2.6741765865567874e-03 2.6234671815615154e-03 0.0000000000000000e+00  -8.2168260340442639e-03 -8.2662104841369436e-03 0.0000000000000000e+00  1.1400809025490604e-03 -7.0706544542256501e-03 0.0000000000000000e+00  -6.6684468286193474e-03 1.8923959003562126e-03 0.0000000000000000e+00  -7.0138205295546385e-03 1.1136378610751973e-03 0.0000000000000000e+00  2.6143329101734319e-03 -5.0225539315918366e-03 0.0000000000000000e+00  2.2743628427620202e-03 -7.7903367798585026e-03 0.0000000000000000e+00  -7.7363172136761822e-03 2.2189920026747679e-03 0.0000000000000000e+00  -1.8204533996153912e-03 -8.2317142964330719e-03 0.0000000000000000e+00  1.8171237159571728e-03 1.7032144512433012e-03 0.0000000000000000e+00  -7.1270580798016448e-03 -7.9405148622532212e-03 0.0000000000000000e+00  2.0153356662501527e-03 -3.5008315629037122e-03 0.0000000000000000e+00  -5.7120141235420582e-03 1.3616749751673030e-03 0.0000000000000000e+00  1.7535476358169844e-03 -8.4957494940489531e-03 0.0000000000000000e+00  3.0669391069363931e-05 7.2536523840105341e-04 0.0000000000000000e+00  -6.3526887038285237e-03 -6.8057567691852646e-03 0.0000000000000000e+00  -8.3994617307337170e-03 -6.9162373700204895e-03 0.0000000000000000e+00  1.3477969494613785e-03 -4.9643257504627003e-04 0.0000000000000000e+00  -3.8876323324853763e-03 -7.4365714134934360e-03 0.0000000000000000e+00  -2.6209204867715828e-03 1.4168343641974097e-03 0.0000000000000000e+00  1.4759386225566427e-03 -2.6861210768639090e-03 0.0000000000000000e+00  -6.8595017531683624e-03 -2.6859555690012743e-03 0.0000000000000000e+00  -2.6209274294318415e-03 -6.9174104609803213e-03 0.0000000000000000e+00  -2.2456245380631018e-03 1.4964148369597148e-03 0.0000000000000000e+00  2.1441139999447217e-03 2.9180559118341287e-03 0.0000000000000000e+00  -8.7623779285626157e-03 -8.6080033096525184e-03 0.0000000000000000e+00  -2.6173484801528361e-03 -7.2216043764000435e-03 0.0000000000000000e+00  -2.6173944277616029e-03 1.1134547282381710e-03 0.0000000000000000e+00  -2.6209204867715828e-03 1.4168343641974097e-03 0.0000000000000000e+00  -2.6209274294318415e-03 -6.9174104609803213e-03 0.0000000000000000e+00  1.1394256639076473e-03 -2.6814961076903746e-03 0.0000000000000000e+00  -7.1966173079381938e-03 -2.6813659070559414e-03 0.0000000000000000e+00  1.1394256639076473e-03 -2.6814961076903746e-03 0.0000000000000000e+00  -2.6173944277616029e-03 1.1134547282381710e-03 0.0000000000000000e+00  1.4759386225566427e-03 -2.6861210768639090e-03 0.0000000000000000e+00  -6.8595017531683624e-03 -2.6859555690012743e-03 0.0000000000000000e+00  -2.6173484801528361e-03 -7.2216043764000435e-03 0.0000000000000000e+00  -7.1966173079381938e-03 -2.6813659070559414e-03 0.0000000000000000e+00  1.3518746365932229e-03 2.6607081064853031e-03 0.0000000000000000e+00  -6.7487125935571952e-03 -4.3092286649478624e-03 0.0000000000000000e+00  -8.4521436250839261e-03 -2.9949521751681813e-04 0.0000000000000000e+00  -8.6949114262826858e-03 2.4288471115659258e-03 0.0000000000000000e+00  -5.8217691292876085e-03 2.9863204784161316e-03 0.0000000000000000e+00  -6.4976318087809600e-03 2.9540014814894433e-03 0.0000000000000000e+00  2.9405947630697653e-03 -8.1400106805939593e-03 0.0000000000000000e+00  6.5564940991191367e-04 -8.7746292445502298e-03 0.0000000000000000e+00  -6.8492842735355065e-03 -3.0809678731739455e-03 0.0000000000000000e+00  -3.5829164337199040e-04 -5.7753678361780192e-03 0.0000000000000000e+00  2.8903829384691313e-03 -6.5666894309674238e-03 0.0000000000000000e+00  -8.1927773455619662e-03 -1.5566895815588588e-03 0.0000000000000000e+00  -8.3240422212048810e-03 1.8308097596091854e-04 0.0000000000000000e+00  2.6750746639452533e-03 2.3098937346252086e-04 0.0000000000000000e+00  4.5127380992876883e-04 2.7959955557347199e-03 0.0000000000000000e+00  3.0218096226722435e-03 2.8703196913636747e-03 0.0000000000000000e+00  -8.5965784571437956e-03 -5.9966718277013565e-03 0.0000000000000000e+00  -6.4161526278295467e-03 -6.4751035321657787e-03 0.0000000000000000e+00  -6.2131735325959749e-03 -8.7886457896364165e-03 0.0000000000000000e+00  2.2076640130112328e-04 -5.3562524339076968e-03 0.0000000000000000e+00  5.2195631276513526e-04 4.6004882151810437e-04 0.0000000000000000e+00  2.9010151556011581e-03 -1.6872983250115956e-03 0.0000000000000000e+00  -4.0150555077784313e-03 -8.7881127385785324e-03 0.0000000000000000e+00  1.4790358137740918e-03 -7.7126359109027966e-03 0.0000000000000000e+00  2.8711713823817825e-03 -8.7807992623668684e-03 0.0000000000000000e+00  -1.0765359395002021e-04 -8.2635799234681648e-03 0.0000000000000000e+00  5.6371409355490058e-04 -5.9430549611539140e-03 0.0000000000000000e+00  -8.5372949093870908e-03 2.9959546199567659e-03 0.0000000000000000e+00  -8.2130777918621705e-03 -1.7089730326431038e-04 0.0000000000000000e+00  -5.8853221912602742e-03 5.1358741278100797e-04 0.0000000000000000e+00  2.6780625324801387e-03 -5.2383879137150643e-03 0.0000000000000000e+00  -8.6625088336859911e-03 1.3610823546046857e-03 0.0000000000000000e+00  2.9014949144642223e-03 -5.8055766830080440e-03 0.0000000000000000e+00  -8.7180145105592802e-03 -8.5403277337420275e-03 0.0000000000000000e+00  -8.2427995055115203e-04 -5.0554334765893546e-03 0.0000000000000000e+00  -4.9935113154775208e-03 -8.4507399106188144e-04 0.0000000000000000e+00  -5.3357044438837606e-03 -3.4567015548290906e-04 0.0000000000000000e+00  -5.3366265731588066e-03 -5.0456225602719517e-03 0.0000000000000000e+00  -4.9590678944995718e-03 2.6259921819856815e-03 0.0000000000000000e+00  -8.4787962247560630e-03 -7.0185427092318642e-03 0.0000000000000000e+00  -8.5824298623234565e-03 -7.1664412212746349e-03 0.0000000000000000e+00  -3.4770934869131310e-03 -6.1407200021346914e-03 0.0000000000000000e+00  2.9651979967898236e-03 -8.0350529450894364e-03 0.0000000000000000e+00  3.0080764824330980e-03 1.6706727146682640e-03 0.0000000000000000e+00  2.4944257739108961e-03 -2.6823672430257369e-03 0.0000000000000000e+00  6.0189028551951948e-04 2.8552456052256437e-03 0.0000000000000000e+00  -6.7459730130678798e-03 -7.8302908793187725e-03 0.0000000000000000e+00  -2.6180566194562308e-03 -8.4294961360939693e-03 0.0000000000000000e+00  -7.7524772742283378e-03 2.8945576816635323e-03 0.0000000000000000e+00  -8.2450316831293431e-04 -2.6806387147141979e-03 0.0000000000000000e+00  2.1556633812865451e-04 4.4288954856165273e-05 0.0000000000000000e+00  -2.6565346749334393e-03 1.8960908071636929e-03 0.0000000000000000e+00  2.1238205227082896e-03 1.6163155724908780e-03 0.0000000000000000e+00  2.8002825284197700e-03 -1.1568946706159708e-03 0.0000000000000000e+00  -1.4762955426876501e-04 -2.1905322777513391e-03 0.0000000000000000e+00  -1.0645983673371916e-03 -8.0878799060866025e-03 0.0000000000000000e+00  -8.0950565798808133e-03 -8.7855066156882662e-03 0.0000000000000000e+00  -4.8046167070040797e-03 -8.2645394759001227e-03 0.0000000000000000e+00  -3.8171970661719148e-03 2.7387151677156132e-03 0.0000000000000000e+00  -4.9935728991790445e-03 2.1868745240623141e-03 0.0000000000000000e+00  -2.6198109874161061e-03 -8.2648775651831801e-03 0.0000000000000000e+00  -3.6012404286376453e-03 -2.5326965113564581e-04 0.0000000000000000e+00  3.0092714361880232e-03 -3.9757734559613539e-03 0.0000000000000000e+00  -4.8955904572486010e-03 -2.6867764654072398e-03 0.0000000000000000e+00  -8.0127194671884023e-03 2.5262081598428250e-03 0.0000000000000000e+00  -7.3574998683085778e-03 2.4799871966054675e-03 0.0000000000000000e+00  2.6355254298856320e-03 2.7555771977039920e-03 0.0000000000000000e+00  -2.6169531431294219e-03 -5.3559449432540049e-03 0.0000000000000000e+00  -5.3942340555413982e-03 -6.5567221763729068e-03 0.0000000000000000e+00  9.9231383390838295e-05 -7.6051238487538208e-03 0.0000000000000000e+00  2.6494411425330450e-03 2.0440031663050686e-03 0.0000000000000000e+00  -7.5445479325519718e-03 -8.2245658356539277e-03 0.0000000000000000e+00  1.8953608067514519e-05 -8.7923961960198211e-03 0.0000000000000000e+00  2.0225912204890604e-03 -7.0731070553979964e-03 0.0000000000000000e+00  -8.4048133486515787e-03 -3.0333296833682036e-03 0.0000000000000000e+00  2.6121525231414147e-03 -3.2078229421972238e-05 0.0000000000000000e+00  -7.7353704060434429e-03 -5.3156131988913212e-03 0.0000000000000000e+00  4.6194519164282412e-04 2.4719861063276110e-03 0.0000000000000000e+00  8.7768578465004105e-05 1.4383802951633425e-03 0.0000000000000000e+00  1.5150474406618209e-03 -3.2069423156402916e-03 0.0000000000000000e+00  -2.6168806310133803e-03 -8.4512930547396580e-04 0.0000000000000000e+00  -3.3641894604426263e-04 -2.0088584898612645e-03 0.0000000000000000e+00  -8.6890571037110120e-03 -4.9562844723839705e-03 0.0000000000000000e+00  -7.4559922175806590e-03 -5.3077019898252918e-03 0.0000000000000000e+00  -2.6215614045604920e-03 -4.9588298402282469e-03 0.0000000000000000e+00  -7.0169915604776350e-03 -4.2278539848093159e-04 0.0000000000000000e+00  -5.0439924791513858e-03 -8.1562761634219865e-03 0.0000000000000000e+00  -8.7526232236598139e-03 9.5082720698011307e-04 0.0000000000000000e+00  2.9934281826414590e-03 -7.0493036787109562e-03 0.0000000000000000e+00  1.8795826201698689e-03 -5.9019832337798735e-03 0.0000000000000000e+00  1.8949671624296951e-03 1.6695545853789844e-03 0.0000000000000000e+00  -2.6181970583651448e-03 2.4606401639369487e-03 0.0000000000000000e+00  -5.2985714390150060e-03 -8.0715583540948242e-03 0.0000000000000000e+00  1.5579042536279265e-03 -7.7245833356004033e-04 0.0000000000000000e+00  -5.1268874624119899e-03 -4.4858510103527663e-03 0.0000000000000000e+00  1.9487852485593679e-03 -8.3377536085551904e-03 0.0000000000000000e+00  1.6004512726612407e-03 -8.6682290510834720e-03 0.0000000000000000e+00  -2.6180566194562308e-03 -8.4294961360939693e-03 0.0000000000000000e+00  -1.5522682428883898e-03 -8.7984668473578154e-03 0.0000000000000000e+00  -7.6718511515599932e-03 -4.8902666216210297e-03 0.0000000000000000e+00  -8.7558178845418694e-03 -2.0272269287472935e-03 0.0000000000000000e+00  -8.1384813897128327e-03 -5.3769480761375688e-03 0.0000000000000000e+00  1.8565818168977673e-03 -5.0556958810583554e-03 0.0000000000000000e+00  -8.3424047031779754e-03 1.6359057511338326e-03 0.0000000000000000e+00  -2.6216936108019854e-03 -4.4856024642844436e-04 0.0000000000000000e+00  -4.8955904572486010e-03 -2.6867764654072398e-03 0.0000000000000000e+00  -3.8459693870926160e-04 -2.6870529261542454e-03 0.0000000000000000e+00  -2.6215614045604920e-03 -4.9588298402282469e-03 0.0000000000000000e+00  -2.9841045213451194e-03 -3.4087953639034906e-04 0.0000000000000000e+00  -4.6386462318860127e-03 1.4855617499907022e-03 0.0000000000000000e+00  -2.7116751376791999e-06 1.8339921879007061e-03 0.0000000000000000e+00  1.9300329695810573e-03 2.9873909354109227e-03 0.0000000000000000e+00  -3.2875540878883987e-04 2.9498750312648182e-03 0.0000000000000000e+00  -8.4181956104885762e-03 -8.7958683799487600e-03 0.0000000000000000e+00  -2.6216936108019854e-03 -4.4856024642844436e-04 0.0000000000000000e+00  -3.8459693870926160e-04 -2.6870529261542454e-03 0.0000000000000000e+00  -8.7383309178651926e-03 -7.6261202668638861e-03 0.0000000000000000e+00  2.8346371054965812e-03 2.4511602529836058e-03 0.0000000000000000e+00  2.5838759627700241e-03 3.3822897828929564e-04 0.0000000000000000e+00  -1.4589983981351997e-03 2.6709018182955813e-03 0.0000000000000000e+00  -3.9208815907174283e-03 2.7742626555136277e-03 0.0000000000000000e+00  -5.3902425143852678e-03 -1.5640632820602795e-03 0.0000000000000000e+00  -4.9564428994567410e-03 -3.1880796068500476e-03 0.0000000000000000e+00  -3.0983684519623753e-03 -4.9548391445568005e-03 0.0000000000000000e+00  -2.6181970583651448e-03 2.4606401639369487e-03 0.0000000000000000e+00  -2.6199527310883011e-03 2.6248753749788072e-03 0.0000000000000000e+00  -5.3359101885818005e-03 -2.6808552874761221e-03 0.0000000000000000e+00  -2.6168806310133803e-03 -8.4512930547396580e-04 0.0000000000000000e+00  2.4944257739108961e-03 -2.6823672430257369e-03 0.0000000000000000e+00  -8.2450316831293431e-04 -2.6806387147141979e-03 0.0000000000000000e+00  2.6764757691370225e-03 -2.6847574900405475e-03 0.0000000000000000e+00  -2.6198109874161061e-03 -8.2648775651831801e-03 0.0000000000000000e+00  -2.6169531431294219e-03 -5.3559449432540049e-03 0.0000000000000000e+00  -2.6199527310883011e-03 2.6248753749788072e-03 0.0000000000000000e+00  2.6764757691370225e-03 -2.6847574900405475e-03 0.0000000000000000e+00  -5.3359101885818005e-03 -2.6808552874761221e-03 0.0000000000000000e+00  -8.3971422220076985e-03 -2.6823506126223222e-03 0.0000000000000000e+00  -8.2146642112450839e-03 -2.6848290484265602e-03 0.0000000000000000e+00  -8.3971422220076985e-03 -2.6823506126223222e-03 0.0000000000000000e+00  -8.2146642112450839e-03 -2.6848290484265602e-03 0.0000000000000000e+00  -8.0889693174467023e-03 -8.2050937219692293e-03 0.0000000000000000e+00  -6.7869136934984543e-03 -1.9325563337303456e-03 0.0000000000000000e+00  -7.1694252328555735e-03 -4.7395174732162777e-04 0.0000000000000000e+00  -4.9503488150953361e-03 -5.0129841976521506e-03 0.0000000000000000e+00  -8.0280100127856947e-03 2.1291775479653262e-03 0.0000000000000000e+00  -8.5977254864094427e-03 2.9804100320704159e-03 0.0000000000000000e+00  -8.6129354756664181e-03 2.1894386378986932e-03 0.0000000000000000e+00  -4.7486219400174159e-04 1.9109055218174545e-03 0.0000000000000000e+00  3.0375931339190398e-03 -4.9380503995463188e-04 0.0000000000000000e+00  -8.7009477944041055e-03 2.5434195865728592e-03 0.0000000000000000e+00  -5.1327495963780431e-03 -8.3662710653776944e-03 0.0000000000000000e+00  2.7860921784131934e-04 -8.5192911992589930e-03 0.0000000000000000e+00  -1.8396309590028256e-03 -6.7665902445075898e-03 0.0000000000000000e+00  -8.4265677280238732e-03 -8.3119875535262160e-03 0.0000000000000000e+00  3.0356873705357692e-03 2.8979084763325353e-03 0.0000000000000000e+00  2.9354065479378529e-03 -8.2515970918599028e-03 0.0000000000000000e+00  2.9701626494063461e-03 -6.5856400268890008e-03 0.0000000000000000e+00  -6.9849322186112820e-03 -8.3596112532151982e-03 0.0000000000000000e+00  1.8175755667558294e-03 -8.5818221514922226e-03 0.0000000000000000e+00  -6.7471938499238946e-03 2.8174991978223182e-03 0.0000000000000000e+00  2.4612347914033383e-03 -7.2047193902308555e-03 0.0000000000000000e+00  2.9918671062382387e-03 -8.7635172570638131e-03 0.0000000000000000e+00  -4.7193022463583477e-03 2.9961610173103235e-03 0.0000000000000000e+00  -8.6939527308800314e-03 -8.7876403322703790e-03 0.0000000000000000e+00  -6.7406045626092091e-03 2.3430620743323679e-03 0.0000000000000000e+00  -7.1451247909708280e-03 -6.4943289652117653e-03 0.0000000000000000e+00  -5.8223188606901640e-03 2.7264510491669131e-03 0.0000000000000000e+00  -5.7685843166368515e-03 2.5050233861296997e-03 0.0000000000000000e+00  1.6493826958506373e-03 1.6737029806127490e-03 0.0000000000000000e+00  2.2623209976714441e-03 -8.7882437916098032e-03 0.0000000000000000e+00  -1.9584668677477685e-03 -1.4199981798191884e-03 0.0000000000000000e+00  -7.8407443078942207e-03 -6.7101575207880954e-03 0.0000000000000000e+00  -4.6284526386990319e-03 -6.7397755492516406e-03 0.0000000000000000e+00  -7.3036843463887401e-03 1.3315637578766588e-03 0.0000000000000000e+00  -8.4783565817691271e-03 -8.3555156198680779e-03 0.0000000000000000e+00  -4.6235856200978987e-03 8.9085164334623383e-04 0.0000000000000000e+00  -7.3517566253823751e-04 -5.6782734626437115e-05 0.0000000000000000e+00  -8.5537121782666113e-03 -4.9359384146852219e-03 0.0000000000000000e+00  2.9405236523834533e-03 -7.9177664392317826e-03 0.0000000000000000e+00  -6.3670950678593853e-03 -6.4834800130417029e-03 0.0000000000000000e+00  -6.3446621172872624e-03 -8.6191559290976060e-03 0.0000000000000000e+00  -8.6592329630861362e-03 -2.7783347176563736e-04 0.0000000000000000e+00  -8.7414854731211866e-03 -7.4481164000629368e-04 0.0000000000000000e+00  -1.7061001496969383e-03 -7.0164037386664085e-03 0.0000000000000000e+00  9.2605111487223857e-04 -4.6117828707632107e-03 0.0000000000000000e+00  -1.1906082857869014e-03 -3.9763781132297988e-03 0.0000000000000000e+00  2.5368658622625861e-03 2.8347981654978462e-03 0.0000000000000000e+00  -8.0177061132632507e-03 2.4427423227749672e-04 0.0000000000000000e+00  -8.7573348628773202e-03 -7.8068846539367095e-03 0.0000000000000000e+00  -1.8571381436383232e-03 6.0223110059340692e-04 0.0000000000000000e+00  -2.9986503248698500e-03 -8.3932515026436030e-03 0.0000000000000000e+00  -8.3697459687437064e-03 -3.5165158799075080e-03 0.0000000000000000e+00  -4.4667548914737697e-03 -8.6985172177393537e-03 0.0000000000000000e+00  -4.2850372524570590e-03 -8.7288427896737263e-03 0.0000000000000000e+00  2.8733061878551116e-03 2.9830734468372969e-03 0.0000000000000000e+00  8.1038819458965019e-05 -7.2441076667499786e-03 0.0000000000000000e+00  2.7703336678369848e-03 1.6698431949845782e-03 0.0000000000000000e+00  2.1722112040111416e-03 -1.1685876818260394e-03 0.0000000000000000e+00  5.9837947571513158e-04 -8.2945928809255495e-03 0.0000000000000000e+00  -7.7879072561341262e-03 2.9766508708863773e-03 0.0000000000000000e+00  -3.3573704006908205e-03 -7.6481121137510566e-03 0.0000000000000000e+00  1.6302484299607197e-03 -7.7815210714973543e-04 0.0000000000000000e+00  -6.3698227046709690e-03 -8.5968251766778310e-03 0.0000000000000000e+00  -8.5405660778582586e-04 -3.8762568703677022e-03 0.0000000000000000e+00  -9.6740063846994650e-04 -6.5454042736228339e-03 0.0000000000000000e+00  1.6361062159878056e-03 -5.0476226064949435e-03 0.0000000000000000e+00  3.3839885552928614e-05 2.9654784993743016e-03 0.0000000000000000e+00  2.6674641264179469e-03 -5.0748549787148507e-03 0.0000000000000000e+00  2.4026997395146100e-03 2.5720078585599081e-04 0.0000000000000000e+00  -7.7556926173370285e-03 -1.8266792423688458e-03 0.0000000000000000e+00  -6.3067814696085370e-03 1.9528223002327838e-03 0.0000000000000000e+00  -4.5727059546897646e-03 1.6480912113634781e-03 0.0000000000000000e+00  -5.7584699591412608e-03 -8.7764347144924319e-03 0.0000000000000000e+00  -3.0421927195507363e-03 -8.6770118755557617e-03 0.0000000000000000e+00  -1.1547359744481967e-03 2.9204343981175142e-03 0.0000000000000000e+00  1.7558121196374757e-03 2.6138909834542822e-03 0.0000000000000000e+00  -7.6330083383848359e-03 -7.1590444658079381e-03 0.0000000000000000e+00  -8.7587059812333223e-03 -6.1837039329396227e-03 0