<?xml version="1.0"?>
<VTKFile type="UnstructuredGrid"  version="0.1"  >
<UnstructuredGrid>
<Piece  NumberOfPoints="1380" NumberOfCells="2630">
<Points>
<DataArray  type="Float64"  NumberOfComponents="3"  format="ascii">-1 -1 0  1 -1 0  1 1 0  -1 1 0  0 -1 0  1 0 0  0 1 0  -1 0 0  0 0 0  -1 -0.5 0  -0.5 -1 0  -0.5 1 0  -1 0.5 0  1 -0.5 0  0.5 -1 0  1 0.5 0  0.5 1 0  0.4166666666666666 -0.4166666666666667 0  -0.4166666666666667 0.4166666666666667 0  -0.25 -0.5 0  0.5 0.25 0  -0.4861111111111112 -0.06944444444444445 0  0.0732758620689655 0.507183908045977 0  -0.625 -0.625 0  0.625 0.625 0  0.7380952380952381 -0.25 0  -0.7099116161616161 0.2105429292929293 0  -0.25 0.7380952380952381 0  0.105392156862745 -0.6348039215686275 0  0.6770833333333334 -0.6770833333333333 0  -0.6770833333333334 0.6770833333333334 0  0.3472222222222222 -0.06944444444444446 0  -0.7264957264957265 -0.3044871794871795 0  0.3141940982507127 0.7297313660835709 0  0.02049587951122483 -0.3227479397556124 0  -0.2690972222222223 0.1475694444444444 0  0.3859500089908372 -0.7274430156831472 0  -0.2228477945123298 -0.1761765495248019 0  0.2182539682539683 0.1884920634920635 0  0.75 0.375 0  -0.145442219440968 -0.7602211097204841 0  0.7088913690476191 0.0427827380952381 0  -0.75 -1 0  -1 -0.75 0  1 0.75 0  0.75 1 0  -0.7439982703698937 -0.04614153195464455 0  -0.4609235096577606 -0.3356498099556895 0  0.4063134471431929 0.4895621842856023 0  0.25 -1 0  -0.25 -1 0  -0.75 1 0  0.75 -1 0  -1 -0.25 0  -1 0.25 0  1 -0.25 0  -0.25 1 0  1 -0.75 0  -1 0.75 0  0.25 1 0  1 0.25 0  -0.4041423272138783 -0.7597141090712928 0  0.06500839607911253 0.7578103030529481 0  -0.1572801182352047 0.3838997021864289 0  -0.6528005242053915 0.4409494757946086 0  -0.4930160984848485 0.1544744318181818 0  -0.4732142857142858 0.7752976190476191 0  0.6398809523809523 -0.4538690476190476 0  0.5166054117396399 -0.2161233620965164 0  -0.002273787244753427 0.2232363985975174 0  0.1500564496765022 -0.1524955293952667 0  0.2016720420046758 -0.4410343282803009 0  -0.08495178036419618 0.6274139771124571 0  -0.8367311471133162 0.3642591720794645 0  -0.8333333333333334 -0.625 0  -0.594323836800685 -0.8231079456002283 0  -0.4466957714776065 -0.5349126855671806 0  0.8125 0.5625 0  0.78125 0.78125 0  0.5091392650016769 0.7947130883338923 0  0.125 -0.8382681931833136 0  -0.8184523809523809 -0.8184523809523809 0  -0.07781530426104531 -0.5819319697006881 0  0.5085055196703295 0.04967610411902112 0  0.2918471072074933 -0.276017202318847 0  0.5120763537765269 -0.5898771553229597 0  0.625 -0.8585349462365591 0  0.8158532234335381 -0.8158532234335381 0  -0.5198088446315396 0.5739411553684605 0  -0.8585349462365591 0.625 0  -0.8150493805516597 0.8156205699829586 0  0.8585349462365591 -0.625 0  -0.2688268348649726 0.5439331383603209 0  0.8242100426758139 -0.4436043596336612 0  0.5833756314287952 0.4479378157143976 0  0.8690476190476191 -0.125 0  -0.125 0.8690476190476191 0  -0.8692745600729823 0.125 0  0.8696725120759167 0.125 0  -0.625 0.8711516477451908 0  0.2339522463269718 0.3879558377955778 0  0.2453709502295031 0.5655822922838026 0  0.1730610651637797 0.02021709580868947 0  0.3245402594056757 -0.5644672020485209 0  -0.7291666666666666 -0.4816595441595442 0  -1 -0.375 0  -0.5811140848639904 -0.2127276307675001 0  0.673332592838314 0.2158348143233718 0  0.375 1 0  -0.5714768890989919 0.2985103444040069 0  -1 -0.125 0  -0.8453692574786325 -0.1875 0  -0.3144549134065865 -0.02408675326008025 0  -0.2898414972096258 -0.3336092734780093 0  -0.1075052092206287 -0.4224330421314983 0  -0.05043970703604117 -0.1652278959397459 0  0.6459672950297897 -0.1113415301525317 0  0.4645210271029513 0.6398480556579343 0  0.3512863754411909 0.0937979496253573 0  -0.6063160985568274 0.03891469652249891 0  -0.3428819444444445 0.8690476190476191 0  0.625 1 0  -0.1602164796159982 0.02697860906625157 0  0.04648110064133829 -0.4808416424239687 0  1 0.875 0  -0.3836102479201657 0.6484936449177356 0  -0.3776011723096096 0.263078478984336 0  -0.6024978259969829 -0.3949628096211138 0  0.125 1 0  0.2010781308272777 0.8456221018461906 0  0.2822509696388829 -0.845902544691141 0  -0.3285533674953515 -0.6289773550938936 0  0.3461306793221754 0.278777492464833 0  0.4737475672408696 -0.8508448959534423 0  0.2384632828836344 -0.7029523187242811 0  -0.004777287059791593 0.3759269695907358 0  -0.8499735021850066 -0.3912320205328522 0  0.1222536293721587 0.2963971539625205 0  -0.3769456520999688 -0.203572526805711 0  -0.2749617205755651 -0.8464290792698902 0  0.004805888512766143 -0.747174355248311 0  -0.125 -1 0  -0.06001061822252458 -0.8724007765244854 0  0.875 0.4375 0  0.854421179608893 0.271342359217786 0  0.875 1 0  -0.1499861095763589 0.2358309656934888 0  0.3381943639137225 0.8663061796405532 0  -0.7853090110442228 0.4998412775277108 0  0.7398165998560814 -0.5535192694951373 0  0.1580042122341573 -0.3100246140259917 0  -0.7291666666666667 -0.7142857142857142 0  -0.375 -1 0  0.6483368386154684 0.8514905990110488 0  -0.1295370103291928 -0.2826118305021242 0  0.07458201853700455 0.1123894386563915 0  0.6146465857036327 -0.3161203659316075 0  0.5551898493894731 -0.740296118159085 0  0.375 -1 0  0.482702798370208 -0.084133350091034 0  0.87890625 0.68359375 0  -0.05917195534525846 0.4971092425697621 0  0.1260710309213975 0.6343750312956699 0  0.8690476190476191 -0.3077066815262848 0  -0.2912010232560567 0.3668168386732139 0  -0.875 1 0  -1 0.875 0  1 -0.875 0  0.875 -1 0  -0.8689564281364567 -0.006189266075306407 0  -0.7449425635110547 0.08458938160051771 0  -0.7150266761936593 -0.1739444581417552 0  -0.5260034831318311 -0.711099823962112 0  -0.4724626808827322 -0.871722230709409 0  0.4734436795977052 0.377714794132168 0  -0.875 -1 0  -1 -0.875 0  0.6927189078571988 0.5156567235715964 0  -0.3742497615796874 -0.4296005251260107 0  -0.1969436423297711 -0.6387157229772615 0  -0.6179496409766825 -0.08933356056510935 0  -0.424405057115988 0.04452428810878029 0  -0.08479048335844169 0.1279607007132633 0  0.003830300099055113 0.8712085230656206 0  0.8748778838820267 -1.379218479898026e-05 0  -0.375 1 0  -0.625 1 0  1 0.125 0  -0.125 1 0  1 -0.375 0  1 -0.125 0  1 -0.625 0  0.625 -1 0  0.125 -1 0  -0.625 -1 0  -1 -0.625 0  -1 0.125 0  -1 0.375 0  -1 0.625 0  1 0.375 0  1 0.625 0  0.6325660748712082 0.3335187599557389 0  -0.06420945895056573 0.7549874027425891 0  -0.8769015540914771 0.2478802253893416 0  0.871875 0.871875 0  -0.6868091492840067 0.3270978624973681 0  -0.5363597469565949 0.412994850055505 0  -0.6803734992638302 0.5574295000651103 0  -0.7076253581162534 -0.8803439094224437 0  -0.8778089002295137 -0.5106896447504627 0  -0.3860184984222981 0.530566778071246 0  0.6109900617121508 0.1128453077697081 0  0.3896945134930274 -0.1915382873255086 0  0.7605656944697778 -0.06822134873122943 0  0.3576151269893478 0.5948388411612135 0  -0.5689902680792265 -0.5143596830118065 0  0.6262446286847614 -0.5735657901943212 0  0.2030558252325225 -0.5625263842513452 0  0.6123273142928579 0.7407533260723429 0  0.4016460890123554 -0.3042863223111857 0  -0.59039693199147 0.7578418819188018 0  0.7276932493917544 -0.3705808024528924 0  0.5222536818742854 -0.4713886230400014 0  -0.5101986527137737 0.8848365765607674 0  0.510560172809238 0.5356013299918891 0  -0.3603569195756083 0.75823710606415 0  0.1967279277813232 0.728226870058472 0  -0.6086880986371127 0.1545624071548516 0  -0.38105366729386 0.1511189987807864 0  -0.2944659463671584 -0.7359061804869591 0  0.5060729154966499 -0.3475227845833823 0  -0.09281616240412746 -0.06197858250969457 0  0.7649739583333334 0.6673177083333334 0  0.7628906249999999 0.890234375 0  -0.2666864184909611 0.2585504071132311 0  0.3635064892129658 0.3878003602709461 0  -0.2339409722222222 0.8901937905844155 0  -0.1718792125974916 -0.8957733325456778 0  0.1001768566329531 0.4023510017391879 0  0.3120260172693757 -0.4540546875576884 0  0.7804062804433681 0.1896628610854537 0  0.4087715451998049 0.187961780041608 0  -0.1584963477271457 0.5451611892421655 0  -0.8926817849258324 0.463022006336401 0  0.2338091473445219 -0.07576267331277289 0  0.08171112182813692 -0.2349087687359925 0  0.04635385178956847 -0.1044635073718474 0  -0.4377391632114205 -0.6448874471423088 0  -0.1907678351227189 0.6480215912813945 0  0.300605946475244 0.4741444604171038 0  -0.2145033720757486 -0.06751709909419711 0  0.6069191921170397 -0.005492331448357812 0  0.0214718770761248 0.6032397936031719 0  0.5476675683364878 0.8992752415326501 0  0.4387475014316537 0.9093708953002239 0  -0.4932997685306436 -0.4381009159993523 0  0.2515197695339056 -0.1791673369138964 0  -0.7291666666666667 -0.6088789682539681 0  -0.9166666666666667 -0.6875 0  0.620579540363709 -0.2122431523583302 0  -0.484950136419973 0.6719440339397442 0  0.2857044415400258 0.0137589173127316 0  -0.8945708364098356 -0.288306105327986 0  0.4043102720140535 0.7842914560451557 0  0.04123256238752064 -0.9026968245801402 0  0.2003676884403109 -0.9091888601740487 0  0.1068775558538842 -0.7373377130403223 0  -0.4804566783514427 -0.1763307203045643 0  0.108286342087769 -0.3993789328997278 0  -0.191883080105361 -0.3640821726430649 0  -0.07025064492006244 0.2984876656890053 0  -0.7039324641409584 0.788312126296613 0  -0.7311286585775438 0.8932502354831682 0  0.5171409396884947 0.1503852691889257 0  0.4229392823658633 -0.003216522184234835 0  -0.5621736087218259 -0.919558629836806 0  -0.626474064879544 -0.7266572613636506 0  0.2446828746617422 0.2867616783302419 0  0.1759429608742923 0.4776611759306416 0  -0.3468240303741654 -0.5260416435617549 0  -0.7465808808425306 0.4069574477998361 0  -0.7819962170660292 0.2802441065650652 0  -0.3742623214119594 -0.8547800509641984 0  0.1014498009713561 0.8506721983266377 0  0.4285217620918213 -0.5230190595570253 0  0.4091738370487775 -0.6256346204225141 0  0.78125 0.46875 0  0.90625 0.53125 0  -0.4791801348852565 0.2553992655702126 0  0.7843318610782772 -0.7086046956885941 0  0.8909728264971901 -0.7355183796514634 0  0.7041908166528879 -0.7830649143180282 0  0.7311821352
[...]
<PointData  Vectors="f_22"> 
<DataArray  type="Float64"  Name="f_22"  NumberOfComponents="3" format="ascii">-1.8101088185498826e-02 -1.6942477012758236e-02 0.0000000000000000e+00  -1.8101088185498826e-02 -1.6942477012758236e-02 0.0000000000000000e+00  -1.8101088185498826e-02 -1.6942477012758236e-02 0.0000000000000000e+00  -1.8101088185498826e-02 -1.6942477012758236e-02 0.0000000000000000e+00  -1.8054848004095594e-02 -2.0623439199380009e-02 0.0000000000000000e+00  -2.1598922941371109e-02 -1.6896052238771230e-02 0.0000000000000000e+00  -1.8054848004095594e-02 -2.0623439199380009e-02 0.0000000000000000e+00  -2.1598922941371109e-02 -1.6896052238771230e-02 0.0000000000000000e+00  -2.1647561009085794e-02 -2.0672651188114934e-02 0.0000000000000000e+00  -1.2713836883996630e-02 -1.6917374801555040e-02 0.0000000000000000e+00  -1.8076061024565680e-02 -1.1676259686377781e-02 0.0000000000000000e+00  -1.8076061024565680e-02 -1.1676259686377781e-02 0.0000000000000000e+00  -2.6991352458138003e-02 -1.6916672394719931e-02 0.0000000000000000e+00  -1.2713836883996630e-02 -1.6917374801555040e-02 0.0000000000000000e+00  -1.8075902150382694e-02 -2.5895278912342508e-02 0.0000000000000000e+00  -2.6991352458138003e-02 -1.6916672394719931e-02 0.0000000000000000e+00  -1.8075902150382694e-02 -2.5895278912342508e-02 0.0000000000000000e+00  -1.3398097921011463e-02 -2.6114256554982909e-02 0.0000000000000000e+00  -2.7185921760726796e-02 -1.2383331526014502e-02 0.0000000000000000e+00  -1.2730828729718799e-02 -1.5092378992865599e-02 0.0000000000000000e+00  -2.6168359337215886e-02 -2.5908713619992696e-02 0.0000000000000000e+00  -2.0044673867787185e-02 -1.1771005375103174e-02 0.0000000000000000e+00  -2.6951970830035841e-02 -2.2228485777907113e-02 0.0000000000000000e+00  -1.2605174141563485e-02 -1.1530457471962128e-02 0.0000000000000000e+00  -2.5789005985228076e-02 -2.4659828362869101e-02 0.0000000000000000e+00  -1.6035513460333398e-02 -2.2698685852831572e-02 0.0000000000000000e+00  -2.5615715185808990e-02 -1.2000298936762913e-02 0.0000000000000000e+00  -2.3849988445634452e-02 -1.5054566200210078e-02 0.0000000000000000e+00  -1.2599669124211267e-02 -2.2845797965074032e-02 0.0000000000000000e+00  -1.2844842583116085e-02 -2.3820083749354060e-02 0.0000000000000000e+00  -2.4960916364703926e-02 -1.1753851938190965e-02 0.0000000000000000e+00  -2.0045459399341110e-02 -2.5957178264021330e-02 0.0000000000000000e+00  -1.5044020214199533e-02 -1.2192935672725193e-02 0.0000000000000000e+00  -2.4044457228676413e-02 -2.5750707151528704e-02 0.0000000000000000e+00  -1.4740036564773906e-02 -2.1115353648199119e-02 0.0000000000000000e+00  -2.4637331050354816e-02 -1.4710398693184926e-02 0.0000000000000000e+00  -1.3274283257140243e-02 -2.6076580044176529e-02 0.0000000000000000e+00  -1.7630318478458716e-02 -1.5653354823202823e-02 0.0000000000000000e+00  -2.5329402275922709e-02 -2.4751700967215153e-02 0.0000000000000000e+00  -2.7133524190531329e-02 -2.2501086502994417e-02 0.0000000000000000e+00  -1.3669801070143893e-02 -1.7312374311077940e-02 0.0000000000000000e+00  -2.2553542365551765e-02 -2.3266170093783119e-02 0.0000000000000000e+00  -1.8093035722439803e-02 -1.2460742424194156e-02 0.0000000000000000e+00  -1.3571897135642145e-02 -1.6934473796655383e-02 0.0000000000000000e+00  -2.3659709864293114e-02 -1.6933983880680618e-02 0.0000000000000000e+00  -1.8093256799775387e-02 -2.2505436147683248e-02 0.0000000000000000e+00  -2.0560940640765545e-02 -1.2358533824124182e-02 0.0000000000000000e+00  -1.4540200394025040e-02 -1.1980074843304447e-02 0.0000000000000000e+00  -2.7064955606539463e-02 -2.6150020236011595e-02 0.0000000000000000e+00  -1.8060694804982520e-02 -2.5115180346149350e-02 0.0000000000000000e+00  -1.8060779271888917e-02 -1.5057607228606355e-02 0.0000000000000000e+00  -1.8093035722439803e-02 -1.2460742424194156e-02 0.0000000000000000e+00  -1.8093256799775387e-02 -2.2505436147683248e-02 0.0000000000000000e+00  -1.6038388739331812e-02 -1.6902278128445362e-02 0.0000000000000000e+00  -2.6136514867309085e-02 -1.6901633934699383e-02 0.0000000000000000e+00  -1.6038388739331812e-02 -1.6902278128445362e-02 0.0000000000000000e+00  -1.8060779271888917e-02 -1.5057607228606355e-02 0.0000000000000000e+00  -1.3571897135642145e-02 -1.6934473796655383e-02 0.0000000000000000e+00  -2.3659709864293114e-02 -1.6933983880680618e-02 0.0000000000000000e+00  -1.8060694804982520e-02 -2.5115180346149350e-02 0.0000000000000000e+00  -2.6136514867309085e-02 -1.6901633934699383e-02 0.0000000000000000e+00  -1.3683758120784900e-02 -1.2558395493682603e-02 0.0000000000000000e+00  -2.3475710689302584e-02 -2.2039431651774990e-02 0.0000000000000000e+00  -2.7149921470434473e-02 -1.7055066216784601e-02 0.0000000000000000e+00  -2.7172879975123385e-02 -1.1595354714574067e-02 0.0000000000000000e+00  -2.4742614748658989e-02 -1.1709297139850836e-02 0.0000000000000000e+00  -2.3108198894974064e-02 -1.1842786301229105e-02 0.0000000000000000e+00  -1.3024420767695295e-02 -2.4396533438920037e-02 0.0000000000000000e+00  -1.6736199542251515e-02 -2.5769293643355121e-02 0.0000000000000000e+00  -2.5829431082206724e-02 -2.0617287116108302e-02 0.0000000000000000e+00  -1.8148955294051181e-02 -2.3688846392306666e-02 0.0000000000000000e+00  -1.3153372696419842e-02 -2.4489223019090140e-02 0.0000000000000000e+00  -2.5718286373920381e-02 -1.8696156276629419e-02 0.0000000000000000e+00  -2.7067244518240066e-02 -1.3648941250034343e-02 0.0000000000000000e+00  -1.2600289246783886e-02 -1.3638867717506463e-02 0.0000000000000000e+00  -1.4601864366761594e-02 -1.1461380392679389e-02 0.0000000000000000e+00  -1.2586482503155237e-02 -1.2109257039991932e-02 0.0000000000000000e+00  -2.6522771406171698e-02 -2.1197228682891076e-02 0.0000000000000000e+00  -2.3029587830975438e-02 -2.1872091525154406e-02 0.0000000000000000e+00  -2.2738375367172176e-02 -2.5851460696982052e-02 0.0000000000000000e+00  -1.4805312088695356e-02 -2.3206008488976904e-02 0.0000000000000000e+00  -1.4533538352509397e-02 -1.3405476075363519e-02 0.0000000000000000e+00  -1.2498064283804539e-02 -1.8873826250495124e-02 0.0000000000000000e+00  -2.2716643536398667e-02 -2.5843068559162449e-02 0.0000000000000000e+00  -1.5553522607073218e-02 -2.5557853905564590e-02 0.0000000000000000e+00  -1.2481225526343844e-02 -2.5794013948298319e-02 0.0000000000000000e+00  -1.5179761694378494e-02 -2.4635168675280296e-02 0.0000000000000000e+00  -1.4476037358794424e-02 -2.1112682073095190e-02 0.0000000000000000e+00  -2.6363986424570340e-02 -1.1553380961009654e-02 0.0000000000000000e+00  -2.5764948384154201e-02 -1.4041722082420032e-02 0.0000000000000000e+00  -2.2277999594085260e-02 -1.3335783364307437e-02 0.0000000000000000e+00  -1.2579869782014854e-02 -2.0147340478836307e-02 0.0000000000000000e+00  -2.6656528328427024e-02 -1.4692127667284687e-02 0.0000000000000000e+00  -1.3123089053261885e-02 -2.0902339414413783e-02 0.0000000000000000e+00  -2.7202905708576499e-02 -2.5187575564614061e-02 0.0000000000000000e+00  -1.8732559338944219e-02 -1.9891792367551120e-02 0.0000000000000000e+00  -2.1054627069213558e-02 -1.7762294799969935e-02 0.0000000000000000e+00  -2.4198210406169297e-02 -1.4212103705122233e-02 0.0000000000000000e+00  -2.4204055782108096e-02 -1.9887293090289391e-02 0.0000000000000000e+00  -2.1024394747658669e-02 -1.1505513046694215e-02 0.0000000000000000e+00  -2.7182743159426672e-02 -2.4955188616828154e-02 0.0000000000000000e+00  -2.6487667388287506e-02 -2.5087994722408490e-02 0.0000000000000000e+00  -2.2094972003845772e-02 -2.4078517666278217e-02 0.0000000000000000e+00  -1.2481575744931916e-02 -2.5798166868048946e-02 0.0000000000000000e+00  -1.2844706864504177e-02 -1.2232073552265859e-02 0.0000000000000000e+00  -1.3924883332698116e-02 -1.6908974381676350e-02 0.0000000000000000e+00  -1.6828746098371681e-02 -1.1446833083542976e-02 0.0000000000000000e+00  -2.5712864595420694e-02 -2.3901767638226028e-02 0.0000000000000000e+00  -1.8067493309585285e-02 -2.6059616467534664e-02 0.0000000000000000e+00  -2.6637365821305412e-02 -1.1418376327707480e-02 0.0000000000000000e+00  -1.8732879171651985e-02 -1.6897553370388806e-02 0.0000000000000000e+00  -1.7346106770160859e-02 -1.3808107895847320e-02 0.0000000000000000e+00  -2.1095302622469364e-02 -1.3891053432828255e-02 0.0000000000000000e+00  -1.4574540405235255e-02 -1.4336555744081594e-02 0.0000000000000000e+00  -1.3365082419900658e-02 -1.8202074991064420e-02 0.0000000000000000e+00  -1.7871573800395595e-02 -1.9526129345814908e-02 0.0000000000000000e+00  -1.9055464849651618e-02 -2.4313946150883899e-02 0.0000000000000000e+00  -2.5575751406700653e-02 -2.6075657491633736e-02 0.0000000000000000e+00  -2.3637648671480244e-02 -2.5986747776545121e-02 0.0000000000000000e+00  -2.2473842274953575e-02 -1.1448043597820983e-02 0.0000000000000000e+00  -2.1056063797477216e-02 -1.3389332868326742e-02 0.0000000000000000e+00  -1.8084815337163621e-02 -2.4646898368715441e-02 0.0000000000000000e+00  -2.2242317753258127e-02 -1.7009064736886820e-02 0.0000000000000000e+00  -1.2831663905379142e-02 -2.1664387852847362e-02 0.0000000000000000e+00  -2.0962953975530000e-02 -1.6939894714397625e-02 0.0000000000000000e+00  -2.5401071970138963e-02 -1.2791951037936631e-02 0.0000000000000000e+00  -2.6295781492632758e-02 -1.2886894172405631e-02 0.0000000000000000e+00  -1.3691425053134540e-02 -1.1472750401321372e-02 0.0000000000000000e+00  -1.8056354992327422e-02 -2.3205785425211560e-02 0.0000000000000000e+00  -2.1600982433390148e-02 -2.4477652897398856e-02 0.0000000000000000e+00  -1.4936036074359111e-02 -2.5453953667958353e-02 0.0000000000000000e+00  -1.2609016764080489e-02 -1.3651561018929665e-02 0.0000000000000000e+00  -2.6491190119373991e-02 -2.5967278704656233e-02 0.0000000000000000e+00  -1.5031131432687682e-02 -2.6012283182484667e-02 0.0000000000000000e+00  -1.3036443199420376e-02 -2.4971905350855764e-02 0.0000000000000000e+00  -2.7136223017639998e-02 -2.0552814490247272e-02 0.0000000000000000e+00  -1.3721986599052532e-02 -1.3902489002441109e-02 0.0000000000000000e+00  -2.6656023212233485e-02 -2.3197528208005892e-02 0.0000000000000000e+00  -1.7033705234183356e-02 -1.2923581988794165e-02 0.0000000000000000e+00  -1.4967199141394790e-02 -1.4583455074203959e-02 0.0000000000000000e+00  -1.3501128272662857e-02 -2.0740264577220009e-02 0.0000000000000000e+00  -1.8056329109580122e-02 -1.7762771200141612e-02 0.0000000000000000e+00  -1.5415393188966921e-02 -1.9262581630229734e-02 0.0000000000000000e+00  -2.7203864536706434e-02 -1.9785493922150378e-02 0.0000000000000000e+00  -2.6386653924918714e-02 -2.0244402089468639e-02 0.0000000000000000e+00  -1.8098924308320264e-02 -1.9799019006121080e-02 0.0000000000000000e+00  -2.5986746989832187e-02 -1.7229327892781740e-02 0.0000000000000000e+00  -2.1141167912626841e-02 -2.5901713170687447e-02 0.0000000000000000e+00  -2.6976354342036622e-02 -1.2871890774763443e-02 0.0000000000000000e+00  -1.2505428861726507e-02 -2.2671231138446941e-02 0.0000000000000000e+00  -1.4947695653920401e-02 -2.3814571257606956e-02 0.0000000000000000e+00  -1.3193587094201792e-02 -1.2238977032011216e-02 0.0000000000000000e+00  -1.8067617697204882e-02 -1.2920447545990766e-02 0.0000000000000000e+00  -2.1494232640294975e-02 -2.4314434028728456e-02 0.0000000000000000e+00  -1.5453358980322384e-02 -1.7704170676805391e-02 0.0000000000000000e+00  -2.4006318192107971e-02 -2.2271931193697688e-02 0.0000000000000000e+00  -1.4820017690703255e-02 -2.4753135772840974e-02 0.0000000000000000e+00  -1.3423241107330865e-02 -2.5449595680466956e-02 0.0000000000000000e+00  -1.8067493309585285e-02 -2.6059616467534664e-02 0.0000000000000000e+00  -1.9695338873866871e-02 -2.5978418264232878e-02 0.0000000000000000e+00  -2.4885688131769824e-02 -1.9708175841295087e-02 0.0000000000000000e+00  -2.7000722609226778e-02 -1.9301848427762919e-02 0.0000000000000000e+00  -2.5635424260247508e-02 -2.3247846806622202e-02 0.0000000000000000e+00  -1.4963261036320868e-02 -1.9892049361421683e-02 0.0000000000000000e+00  -2.7084402156712831e-02 -1.4280748159483676e-02 0.0000000000000000e+00  -1.8098988679009772e-02 -1.4367123562004425e-02 0.0000000000000000e+00  -2.0962953975530000e-02 -1.6939894714397625e-02 0.0000000000000000e+00  -1.5507210589694341e-02 -1.6940383655513282e-02 0.0000000000000000e+00  -1.8098924308320264e-02 -1.9799019006121080e-02 0.0000000000000000e+00  -2.1462930707143710e-02 -1.4210421978466753e-02 0.0000000000000000e+00  -2.3418631953916788e-02 -1.2361140558960853e-02 0.0000000000000000e+00  -1.7652540258993266e-02 -1.2071073473158660e-02 0.0000000000000000e+00  -1.3158873310890854e-02 -1.1568507953701141e-02 0.0000000000000000e+00  -1.5432125129408121e-02 -1.1870890062040663e-02 0.0000000000000000e+00  -2.7154731909679288e-02 -2.6044993633296175e-02 0.0000000000000000e+00  -1.8098988679009772e-02 -1.4367123562004425e-02 0.0000000000000000e+00  -1.5507210589694341e-02 -1.6940383655513282e-02 0.0000000000000000e+00  -2.6912538229729974e-02 -2.3586363303004992e-02 0.0000000000000000e+00  -1.3299397583710333e-02 -1.2963908443309548e-02 0.0000000000000000e+00  -1.2638612609393573e-02 -1.6184181827294853e-02 0.0000000000000000e+00  -1.9576370649252509e-02 -1.1482696907096267e-02 0.0000000000000000e+00  -2.2607025898510800e-02 -1.2317407446340483e-02 0.0000000000000000e+00  -2.4294978672045355e-02 -1.8731480551301281e-02 0.0000000000000000e+00  -2.1009032879324131e-02 -2.0712136614536629e-02 0.0000000000000000e+00  -2.1600985202674124e-02 -1.9762189781007300e-02 0.0000000000000000e+00  -1.8067617697204882e-02 -1.2920447545990766e-02 0.0000000000000000e+00  -1.8084777610400088e-02 -1.1515020960049168e-02 0.0000000000000000e+00  -2.4198561125427037e-02 -1.6897465808489352e-02 0.0000000000000000e+00  -1.8056329109580122e-02 -1.7762771200141612e-02 0.0000000000000000e+00  -1.3924883332698116e-02 -1.6908974381676350e-02 0.0000000000000000e+00  -1.8732879171651985e-02 -1.6897553370388806e-02 0.0000000000000000e+00  -1.2590476117256409e-02 -1.6926118476073698e-02 0.0000000000000000e+00  -1.8084815337163621e-02 -2.4646898368715441e-02 0.0000000000000000e+00  -1.8056354992327422e-02 -2.3205785425211560e-02 0.0000000000000000e+00  -1.8084777610400088e-02 -1.1515020960049168e-02 0.0000000000000000e+00  -1.2590476117256409e-02 -1.6926118476073698e-02 0.0000000000000000e+00  -2.4198561125427037e-02 -1.6897465808489352e-02 0.0000000000000000e+00  -2.7117617514993853e-02 -1.6908388355783451e-02 0.0000000000000000e+00  -2.5776618570217975e-02 -1.6925822117928351e-02 0.0000000000000000e+00  -2.7117617514993853e-02 -1.6908388355783451e-02 0.0000000000000000e+00  -2.5776618570217975e-02 -1.6925822117928351e-02 0.0000000000000000e+00  -2.6934093486630794e-02 -2.4544219385503330e-02 0.0000000000000000e+00  -2.3524330551679986e-02 -1.9167962146850494e-02 0.0000000000000000e+00  -2.6107437883537879e-02 -1.4352001653832233e-02 0.0000000000000000e+00  -2.1036422250013006e-02 -1.9872123160225696e-02 0.0000000000000000e+00  -2.6858335509389136e-02 -1.1808179093740887e-02 0.0000000000000000e+00  -2.7181510789546823e-02 -1.1488102299900649e-02 0.0000000000000000e+00  -2.6536467243963229e-02 -1.1768647389245709e-02 0.0000000000000000e+00  -1.5605604537364780e-02 -1.2028118414952872e-02 0.0000000000000000e+00  -1.2668184559471822e-02 -1.4406480643583195e-02 0.0000000000000000e+00  -2.6762214199427682e-02 -1.2760858895389117e-02 0.0000000000000000e+00  -2.3992852586321122e-02 -2.4827757840650607e-02 0.0000000000000000e+00  -1.7269270444613023e-02 -2.6098508968695991e-02 0.0000000000000000e+00  -2.0045473734298477e-02 -2.2257421300733066e-02 0.0000000000000000e+00  -2.6170619877088620e-02 -2.6017221334950304e-02 0.0000000000000000e+00  -1.2665238415926551e-02 -1.1466867839409405e-02 0.0000000000000000e+00  -1.2480130508437680e-02 -2.4597017815411702e-02 0.0000000000000000e+00  -1.2487906033547174e-02 -2.4502453204976800e-02 0.0000000000000000e+00  -2.3845440714985740e-02 -2.4830509466605730e-02 0.0000000000000000e+00  -1.5032388249243798e-02 -2.6110250106161234e-02 0.0000000000000000e+00  -2.3469764372073942e-02 -1.1429292080879521e-02 0.0000000000000000e+00  -1.3975883702845728e-02 -2.2898538479229572e-02 0.0000000000000000e+00  -1.2880683227323764e-02 -2.5720391071466960e-02 0.0000000000000000e+00  -2.0704359614576642e-02 -1.1613319863959790e-02 0.0000000000000000e+00  -2.6768566651302384e-02 -2.5849248786883241e-02 0.0000000000000000e+00  -2.3452207716278341e-02 -1.3120848867665793e-02 0.0000000000000000e+00  -2.4064859011735600e-02 -2.4421780301921825e-02 0.0000000000000000e+00  -2.4737194762475514e-02 -1.1445039380915638e-02 0.0000000000000000e+00  -2.4691945272635896e-02 -1.2846421063864895e-02 0.0000000000000000e+00  -1.3396634359763624e-02 -1.4231832665353454e-02 0.0000000000000000e+00  -1.4316346414889923e-02 -2.5833970422309907e-02 0.0000000000000000e+00  -2.0232941283929863e-02 -1.8550176661901924e-02 0.0000000000000000e+00  -2.5156623140046745e-02 -2.2209071121207825e-02 0.0000000000000000e+00  -2.0613851280860022e-02 -2.2250471221103511e-02 0.0000000000000000e+00  -2.6252222709529548e-02 -1.4749853789929506e-02 0.0000000000000000e+00  -2.7184694403707479e-02 -2.6047258455478513e-02 0.0000000000000000e+00  -2.0570498043843324e-02 -1.5378406298239340e-02 0.0000000000000000e+00  -1.5863848707898726e-02 -1.6711519293835294e-02 0.0000000000000000e+00  -2.7204669601031194e-02 -2.2772862730940785e-02 0.0000000000000000e+00  -1.3027404764671326e-02 -2.5713153512347469e-02 0.0000000000000000e+00  -2.5318176955328228e-02 -2.1863772903012363e-02 0.0000000000000000e+00  -2.5316448352477164e-02 -2.6147409991664771e-02 0.0000000000000000e+00  -2.6651854911675512e-02 -1.7016948337515322e-02 0.0000000000000000e+00  -2.7138567906838308e-02 -1.4659280541103010e-02 0.0000000000000000e+00  -1.9905937661588366e-02 -2.4946613636060769e-02 0.0000000000000000e+00  -1.6373928403322840e-02 -2.2407290983586927e-02 0.0000000000000000e+00  -1.9250095567258915e-02 -2.1682341533438614e-02 0.0000000000000000e+00  -1.2682798657481398e-02 -1.2192712551501178e-02 0.0000000000000000e+00  -2.5413162410506753e-02 -1.6296502510384697e-02 0.0000000000000000e+00  -2.7128622029806638e-02 -2.5656252555666718e-02 0.0000000000000000e+00  -2.0103197376118580e-02 -1.5826730215693963e-02 0.0000000000000000e+00  -2.1494192303691553e-02 -2.4871984618760952e-02 0.0000000000000000e+00  -2.6045664600691430e-02 -2.1120065262203360e-02 0.0000000000000000e+00  -2.0395850684648793e-02 -2.5546660551822444e-02 0.0000000000000000e+00  -2.0155673171128669e-02 -2.6122774151479181e-02 0.0000000000000000e+00  -1.3213987268125556e-02 -1.1741110880959978e-02 0.0000000000000000e+00  -1.7548758869476922e-02 -2.5153522702800288e-02 0.0000000000000000e+00  -1.2557211665731906e-02 -1.2237433314890054e-02 0.0000000000000000e+00  -1.2953535552781649e-02 -1.5163928096960287e-02 0.0000000000000000e+00  -1.6812164698554725e-02 -2.4676296968317645e-02 0.0000000000000000e+00  -2.5034622574748824e-02 -1.1753573652637158e-02 0.0000000000000000e+00  -2.1947415751055532e-02 -2.5520031452507259e-02 0.0000000000000000e+00  -1.5318489696970644e-02 -1.4704689316158785e-02 0.0000000000000000e+00  -2.2953712082915786e-02 -2.6136070680338505e-02 0.0000000000000000e+00  -1.5989230044153594e-02 -2.1527709141096803e-02 0.0000000000000000e+00  -1.6117169136153981e-02 -2.4456838641022504e-02 0.0000000000000000e+00  -1.3383518813427215e-02 -2.2869101082701866e-02 0.0000000000000000e+00  -1.7617947571635158e-02 -1.1818162249650266e-02 0.0000000000000000e+00  -1.3618639775939630e-02 -2.2916560658471728e-02 0.0000000000000000e+00  -1.4108326118470313e-02 -1.6310143895402373e-02 0.0000000000000000e+00  -2.6664950936027287e-02 -1.9059380851948707e-02 0.0000000000000000e+00  -2.2852698133628852e-02 -1.1972635223474668e-02 0.0000000000000000e+00  -2.0528154973590632e-02 -1.2243393717123350e-02 0.0000000000000000e+00  -2.4688276210707426e-02 -2.5791193503498937e-02 0.0000000000000000e+00  -2.1559007198996470e-02 -2.6137790770567194e-02 0.0000000000000000e+00  -1.6362268047248853e-02 -1.1460805726027656e-02 0.0000000000000000e+00  -1.3316620976818575e