<?xml version="1.0"?>
<VTKFile type="UnstructuredGrid"  version="0.1"  >
<UnstructuredGrid>
<Piece  NumberOfPoints="1380" NumberOfCells="2630">
<Points>
<DataArray  type="Float64"  NumberOfComponents="3"  format="ascii">-1 -1 0  1 -1 0  1 1 0  -1 1 0  0 -1 0  1 0 0  0 1 0  -1 0 0  0 0 0  -1 -0.5 0  -0.5 -1 0  -0.5 1 0  -1 0.5 0  1 -0.5 0  0.5 -1 0  1 0.5 0  0.5 1 0  0.4166666666666666 -0.4166666666666667 0  -0.4166666666666667 0.4166666666666667 0  -0.25 -0.5 0  0.5 0.25 0  -0.4861111111111112 -0.06944444444444445 0  0.0732758620689655 0.507183908045977 0  -0.625 -0.625 0  0.625 0.625 0  0.7380952380952381 -0.25 0  -0.7099116161616161 0.2105429292929293 0  -0.25 0.7380952380952381 0  0.105392156862745 -0.6348039215686275 0  0.6770833333333334 -0.6770833333333333 0  -0.6770833333333334 0.6770833333333334 0  0.3472222222222222 -0.06944444444444446 0  -0.7264957264957265 -0.3044871794871795 0  0.3141940982507127 0.7297313660835709 0  0.02049587951122483 -0.3227479397556124 0  -0.2690972222222223 0.1475694444444444 0  0.3859500089908372 -0.7274430156831472 0  -0.2228477945123298 -0.1761765495248019 0  0.2182539682539683 0.1884920634920635 0  0.75 0.375 0  -0.145442219440968 -0.7602211097204841 0  0.7088913690476191 0.0427827380952381 0  -0.75 -1 0  -1 -0.75 0  1 0.75 0  0.75 1 0  -0.7439982703698937 -0.04614153195464455 0  -0.4609235096577606 -0.3356498099556895 0  0.4063134471431929 0.4895621842856023 0  0.25 -1 0  -0.25 -1 0  -0.75 1 0  0.75 -1 0  -1 -0.25 0  -1 0.25 0  1 -0.25 0  -0.25 1 0  1 -0.75 0  -1 0.75 0  0.25 1 0  1 0.25 0  -0.4041423272138783 -0.7597141090712928 0  0.06500839607911253 0.7578103030529481 0  -0.1572801182352047 0.3838997021864289 0  -0.6528005242053915 0.4409494757946086 0  -0.4930160984848485 0.1544744318181818 0  -0.4732142857142858 0.7752976190476191 0  0.6398809523809523 -0.4538690476190476 0  0.5166054117396399 -0.2161233620965164 0  -0.002273787244753427 0.2232363985975174 0  0.1500564496765022 -0.1524955293952667 0  0.2016720420046758 -0.4410343282803009 0  -0.08495178036419618 0.6274139771124571 0  -0.8367311471133162 0.3642591720794645 0  -0.8333333333333334 -0.625 0  -0.594323836800685 -0.8231079456002283 0  -0.4466957714776065 -0.5349126855671806 0  0.8125 0.5625 0  0.78125 0.78125 0  0.5091392650016769 0.7947130883338923 0  0.125 -0.8382681931833136 0  -0.8184523809523809 -0.8184523809523809 0  -0.07781530426104531 -0.5819319697006881 0  0.5085055196703295 0.04967610411902112 0  0.2918471072074933 -0.276017202318847 0  0.5120763537765269 -0.5898771553229597 0  0.625 -0.8585349462365591 0  0.8158532234335381 -0.8158532234335381 0  -0.5198088446315396 0.5739411553684605 0  -0.8585349462365591 0.625 0  -0.8150493805516597 0.8156205699829586 0  0.8585349462365591 -0.625 0  -0.2688268348649726 0.5439331383603209 0  0.8242100426758139 -0.4436043596336612 0  0.5833756314287952 0.4479378157143976 0  0.8690476190476191 -0.125 0  -0.125 0.8690476190476191 0  -0.8692745600729823 0.125 0  0.8696725120759167 0.125 0  -0.625 0.8711516477451908 0  0.2339522463269718 0.3879558377955778 0  0.2453709502295031 0.5655822922838026 0  0.1730610651637797 0.02021709580868947 0  0.3245402594056757 -0.5644672020485209 0  -0.7291666666666666 -0.4816595441595442 0  -1 -0.375 0  -0.5811140848639904 -0.2127276307675001 0  0.673332592838314 0.2158348143233718 0  0.375 1 0  -0.5714768890989919 0.2985103444040069 0  -1 -0.125 0  -0.8453692574786325 -0.1875 0  -0.3144549134065865 -0.02408675326008025 0  -0.2898414972096258 -0.3336092734780093 0  -0.1075052092206287 -0.4224330421314983 0  -0.05043970703604117 -0.1652278959397459 0  0.6459672950297897 -0.1113415301525317 0  0.4645210271029513 0.6398480556579343 0  0.3512863754411909 0.0937979496253573 0  -0.6063160985568274 0.03891469652249891 0  -0.3428819444444445 0.8690476190476191 0  0.625 1 0  -0.1602164796159982 0.02697860906625157 0  0.04648110064133829 -0.4808416424239687 0  1 0.875 0  -0.3836102479201657 0.6484936449177356 0  -0.3776011723096096 0.263078478984336 0  -0.6024978259969829 -0.3949628096211138 0  0.125 1 0  0.2010781308272777 0.8456221018461906 0  0.2822509696388829 -0.845902544691141 0  -0.3285533674953515 -0.6289773550938936 0  0.3461306793221754 0.278777492464833 0  0.4737475672408696 -0.8508448959534423 0  0.2384632828836344 -0.7029523187242811 0  -0.004777287059791593 0.3759269695907358 0  -0.8499735021850066 -0.3912320205328522 0  0.1222536293721587 0.2963971539625205 0  -0.3769456520999688 -0.203572526805711 0  -0.2749617205755651 -0.8464290792698902 0  0.004805888512766143 -0.747174355248311 0  -0.125 -1 0  -0.06001061822252458 -0.8724007765244854 0  0.875 0.4375 0  0.854421179608893 0.271342359217786 0  0.875 1 0  -0.1499861095763589 0.2358309656934888 0  0.3381943639137225 0.8663061796405532 0  -0.7853090110442228 0.4998412775277108 0  0.7398165998560814 -0.5535192694951373 0  0.1580042122341573 -0.3100246140259917 0  -0.7291666666666667 -0.7142857142857142 0  -0.375 -1 0  0.6483368386154684 0.8514905990110488 0  -0.1295370103291928 -0.2826118305021242 0  0.07458201853700455 0.1123894386563915 0  0.6146465857036327 -0.3161203659316075 0  0.5551898493894731 -0.740296118159085 0  0.375 -1 0  0.482702798370208 -0.084133350091034 0  0.87890625 0.68359375 0  -0.05917195534525846 0.4971092425697621 0  0.1260710309213975 0.6343750312956699 0  0.8690476190476191 -0.3077066815262848 0  -0.2912010232560567 0.3668168386732139 0  -0.875 1 0  -1 0.875 0  1 -0.875 0  0.875 -1 0  -0.8689564281364567 -0.006189266075306407 0  -0.7449425635110547 0.08458938160051771 0  -0.7150266761936593 -0.1739444581417552 0  -0.5260034831318311 -0.711099823962112 0  -0.4724626808827322 -0.871722230709409 0  0.4734436795977052 0.377714794132168 0  -0.875 -1 0  -1 -0.875 0  0.6927189078571988 0.5156567235715964 0  -0.3742497615796874 -0.4296005251260107 0  -0.1969436423297711 -0.6387157229772615 0  -0.6179496409766825 -0.08933356056510935 0  -0.424405057115988 0.04452428810878029 0  -0.08479048335844169 0.1279607007132633 0  0.003830300099055113 0.8712085230656206 0  0.8748778838820267 -1.379218479898026e-05 0  -0.375 1 0  -0.625 1 0  1 0.125 0  -0.125 1 0  1 -0.375 0  1 -0.125 0  1 -0.625 0  0.625 -1 0  0.125 -1 0  -0.625 -1 0  -1 -0.625 0  -1 0.125 0  -1 0.375 0  -1 0.625 0  1 0.375 0  1 0.625 0  0.6325660748712082 0.3335187599557389 0  -0.06420945895056573 0.7549874027425891 0  -0.8769015540914771 0.2478802253893416 0  0.871875 0.871875 0  -0.6868091492840067 0.3270978624973681 0  -0.5363597469565949 0.412994850055505 0  -0.6803734992638302 0.5574295000651103 0  -0.7076253581162534 -0.8803439094224437 0  -0.8778089002295137 -0.5106896447504627 0  -0.3860184984222981 0.530566778071246 0  0.6109900617121508 0.1128453077697081 0  0.3896945134930274 -0.1915382873255086 0  0.7605656944697778 -0.06822134873122943 0  0.3576151269893478 0.5948388411612135 0  -0.5689902680792265 -0.5143596830118065 0  0.6262446286847614 -0.5735657901943212 0  0.2030558252325225 -0.5625263842513452 0  0.6123273142928579 0.7407533260723429 0  0.4016460890123554 -0.3042863223111857 0  -0.59039693199147 0.7578418819188018 0  0.7276932493917544 -0.3705808024528924 0  0.5222536818742854 -0.4713886230400014 0  -0.5101986527137737 0.8848365765607674 0  0.510560172809238 0.5356013299918891 0  -0.3603569195756083 0.75823710606415 0  0.1967279277813232 0.728226870058472 0  -0.6086880986371127 0.1545624071548516 0  -0.38105366729386 0.1511189987807864 0  -0.2944659463671584 -0.7359061804869591 0  0.5060729154966499 -0.3475227845833823 0  -0.09281616240412746 -0.06197858250969457 0  0.7649739583333334 0.6673177083333334 0  0.7628906249999999 0.890234375 0  -0.2666864184909611 0.2585504071132311 0  0.3635064892129658 0.3878003602709461 0  -0.2339409722222222 0.8901937905844155 0  -0.1718792125974916 -0.8957733325456778 0  0.1001768566329531 0.4023510017391879 0  0.3120260172693757 -0.4540546875576884 0  0.7804062804433681 0.1896628610854537 0  0.4087715451998049 0.187961780041608 0  -0.1584963477271457 0.5451611892421655 0  -0.8926817849258324 0.463022006336401 0  0.2338091473445219 -0.07576267331277289 0  0.08171112182813692 -0.2349087687359925 0  0.04635385178956847 -0.1044635073718474 0  -0.4377391632114205 -0.6448874471423088 0  -0.1907678351227189 0.6480215912813945 0  0.300605946475244 0.4741444604171038 0  -0.2145033720757486 -0.06751709909419711 0  0.6069191921170397 -0.005492331448357812 0  0.0214718770761248 0.6032397936031719 0  0.5476675683364878 0.8992752415326501 0  0.4387475014316537 0.9093708953002239 0  -0.4932997685306436 -0.4381009159993523 0  0.2515197695339056 -0.1791673369138964 0  -0.7291666666666667 -0.6088789682539681 0  -0.9166666666666667 -0.6875 0  0.620579540363709 -0.2122431523583302 0  -0.484950136419973 0.6719440339397442 0  0.2857044415400258 0.0137589173127316 0  -0.8945708364098356 -0.288306105327986 0  0.4043102720140535 0.7842914560451557 0  0.04123256238752064 -0.9026968245801402 0  0.2003676884403109 -0.9091888601740487 0  0.1068775558538842 -0.7373377130403223 0  -0.4804566783514427 -0.1763307203045643 0  0.108286342087769 -0.3993789328997278 0  -0.191883080105361 -0.3640821726430649 0  -0.07025064492006244 0.2984876656890053 0  -0.7039324641409584 0.788312126296613 0  -0.7311286585775438 0.8932502354831682 0  0.5171409396884947 0.1503852691889257 0  0.4229392823658633 -0.003216522184234835 0  -0.5621736087218259 -0.919558629836806 0  -0.626474064879544 -0.7266572613636506 0  0.2446828746617422 0.2867616783302419 0  0.1759429608742923 0.4776611759306416 0  -0.3468240303741654 -0.5260416435617549 0  -0.7465808808425306 0.4069574477998361 0  -0.7819962170660292 0.2802441065650652 0  -0.3742623214119594 -0.8547800509641984 0  0.1014498009713561 0.8506721983266377 0  0.4285217620918213 -0.5230190595570253 0  0.4091738370487775 -0.6256346204225141 0  0.78125 0.46875 0  0.90625 0.53125 0  -0.4791801348852565 0.2553992655702126 0  0.7843318610782772 -0.7086046956885941 0  0.8909728264971901 -0.7355183796514634 0  0.7041908166528879 -0.7830649143180282 0  0.7311821352
[...]
<PointData  Vectors="f_22"> 
<DataArray  type="Float64"  Name="f_22"  NumberOfComponents="3" format="ascii">-1.7671110223929969e-02 -1.6489009644465275e-02 0.0000000000000000e+00  -1.7671110223929969e-02 -1.6489009644465275e-02 0.0000000000000000e+00  -1.7671110223929969e-02 -1.6489009644465275e-02 0.0000000000000000e+00  -1.7671110223929969e-02 -1.6489009644465275e-02 0.0000000000000000e+00  -1.7597657067283924e-02 -2.1075621988295868e-02 0.0000000000000000e+00  -2.2030168424021137e-02 -1.6414955158827158e-02 0.0000000000000000e+00  -1.7597657067283924e-02 -2.1075621988295868e-02 0.0000000000000000e+00  -2.2030168424021137e-02 -1.6414955158827158e-02 0.0000000000000000e+00  -2.2106589391427203e-02 -2.1153040315455240e-02 0.0000000000000000e+00  -1.0214029806922195e-02 -1.6448482531711973e-02 0.0000000000000000e+00  -1.7630816424947088e-02 -9.1805786797027455e-03 0.0000000000000000e+00  -1.7630816424947088e-02 -9.1805786797027455e-03 0.0000000000000000e+00  -2.9493944251551177e-02 -1.6447395720432613e-02 0.0000000000000000e+00  -1.0214029806922195e-02 -1.6448482531711973e-02 0.0000000000000000e+00  -1.7630563830327229e-02 -2.8391244252798570e-02 0.0000000000000000e+00  -2.9493944251551177e-02 -1.6447395720432613e-02 0.0000000000000000e+00  -1.7630563830327229e-02 -2.8391244252798570e-02 0.0000000000000000e+00  -1.1088680823234356e-02 -2.8634483769191636e-02 0.0000000000000000e+00  -2.9706881432529832e-02 -1.0083961262669883e-02 0.0000000000000000e+00  -1.0240835816323984e-02 -1.3667156494164726e-02 0.0000000000000000e+00  -2.8261318501612266e-02 -2.8412861545192045e-02 0.0000000000000000e+00  -1.9943073863468212e-02 -9.3020703447418366e-03 0.0000000000000000e+00  -2.9446019915709571e-02 -2.3256138469967706e-02 0.0000000000000000e+00  -1.0140654496719024e-02 -9.0610916826165296e-03 0.0000000000000000e+00  -2.7943507616562457e-02 -2.6799271108998178e-02 0.0000000000000000e+00  -1.4570332830802942e-02 -2.4193987816883162e-02 0.0000000000000000e+00  -2.7492853833454543e-02 -9.7274164782399850e-03 0.0000000000000000e+00  -2.5366077501510667e-02 -1.3607882976251815e-02 0.0000000000000000e+00  -1.0128498540954007e-02 -2.4091288000360579e-02 0.0000000000000000e+00  -1.0480902576046721e-02 -2.5683168205739772e-02 0.0000000000000000e+00  -2.6841774856478522e-02 -9.3813552252179286e-03 0.0000000000000000e+00  -1.9944295924529856e-02 -2.8389623506096476e-02 0.0000000000000000e+00  -1.3260194231490188e-02 -1.0002873020301074e-02 0.0000000000000000e+00  -2.5633442116288672e-02 -2.8093579578633714e-02 0.0000000000000000e+00  -1.2859640534616187e-02 -2.1749269865118100e-02 0.0000000000000000e+00  -2.6159232577845973e-02 -1.3157756819384085e-02 0.0000000000000000e+00  -1.1080142046284956e-02 -2.8566009199865676e-02 0.0000000000000000e+00  -1.6708228497031092e-02 -1.4415815794545789e-02 0.0000000000000000e+00  -2.7108211176439263e-02 -2.6705899276737308e-02 0.0000000000000000e+00  -2.9620173703218615e-02 -2.3940751402418844e-02 0.0000000000000000e+00  -1.1631997670827392e-02 -1.6625083028210984e-02 0.0000000000000000e+00  -2.3324149594453596e-02 -2.4951279273181564e-02 0.0000000000000000e+00  -1.7657887601600291e-02 -1.0377263678317667e-02 0.0000000000000000e+00  -1.1501714362169877e-02 -1.6475833046195792e-02 0.0000000000000000e+00  -2.5123807112885647e-02 -1.6475116999212620e-02 0.0000000000000000e+00  -1.7658201917982782e-02 -2.3948059908229419e-02 0.0000000000000000e+00  -2.0633252387980260e-02 -1.0229320175024287e-02 0.0000000000000000e+00  -1.2598120415689985e-02 -9.5730636892079231e-03 0.0000000000000000e+00  -2.9592580429393268e-02 -2.8685568352425576e-02 0.0000000000000000e+00  -1.7606719376345559e-02 -2.7200837327621567e-02 0.0000000000000000e+00  -1.7606897307517921e-02 -1.3612148769245354e-02 0.0000000000000000e+00  -1.7657887601600291e-02 -1.0377263678317667e-02 0.0000000000000000e+00  -1.7658201917982782e-02 -2.3948059908229419e-02 0.0000000000000000e+00  -1.4574645912416776e-02 -1.6424680945846905e-02 0.0000000000000000e+00  -2.8210975417442774e-02 -1.6423673208060954e-02 0.0000000000000000e+00  -1.4574645912416776e-02 -1.6424680945846905e-02 0.0000000000000000e+00  -1.7606897307517921e-02 -1.3612148769245354e-02 0.0000000000000000e+00  -1.1501714362169877e-02 -1.6475833046195792e-02 0.0000000000000000e+00  -2.5123807112885647e-02 -1.6475116999212620e-02 0.0000000000000000e+00  -1.7606719376345559e-02 -2.7200837327621567e-02 0.0000000000000000e+00  -2.8210975417442774e-02 -1.6423673208060954e-02 0.0000000000000000e+00  -1.1655322953227257e-02 -1.0318885005266534e-02 0.0000000000000000e+00  -2.4872104386566112e-02 -2.2995322861667184e-02 0.0000000000000000e+00  -2.9644702088201566e-02 -1.6283273669560800e-02 0.0000000000000000e+00  -2.9701726780486461e-02 -9.1521068615460169e-03 0.0000000000000000e+00  -2.6299982386294787e-02 -9.2192923779557175e-03 0.0000000000000000e+00  -2.4379126538652832e-02 -9.3864216369176599e-03 0.0000000000000000e+00  -1.0603467109478425e-02 -2.6440180474177379e-02 0.0000000000000000e+00  -1.5506253894244615e-02 -2.8227287589265022e-02 0.0000000000000000e+00  -2.7793950367204414e-02 -2.1077271626685899e-02 0.0000000000000000e+00  -1.7400365267028987e-02 -2.5246490577098810e-02 0.0000000000000000e+00  -1.0773271185272265e-02 -2.6339268142168502e-02 0.0000000000000000e+00  -2.7840570521818458e-02 -1.8481756527272828e-02 0.0000000000000000e+00  -2.9519441346890874e-02 -1.2003183616283903e-02 0.0000000000000000e+00  -1.0132897370219331e-02 -1.1999511439971380e-02 0.0000000000000000e+00  -1.2918194195635569e-02 -8.9493155593509243e-03 0.0000000000000000e+00  -1.0066726749615821e-02 -9.7394031670369249e-03 0.0000000000000000e+00  -2.8899498651037490e-02 -2.2204191883415526e-02 0.0000000000000000e+00  -2.4286513409639662e-02 -2.3106596351720771e-02 0.0000000000000000e+00  -2.3896005760965539e-02 -2.8340590643875112e-02 0.0000000000000000e+00  -1.3186408802568307e-02 -2.4579772246155353e-02 0.0000000000000000e+00  -1.2825957479077563e-02 -1.1680834268532720e-02 0.0000000000000000e+00  -9.9675977970408256e-03 -1.8723405618080953e-02 0.0000000000000000e+00  -2.3548390082701039e-02 -2.8326306464992158e-02 0.0000000000000000e+00  -1.3934406277927330e-02 -2.7820776711901061e-02 0.0000000000000000e+00  -9.9436877322946482e-03 -2.8256448037247316e-02 0.0000000000000000e+00  -1.3701308204482383e-02 -2.6759989273384133e-02 0.0000000000000000e+00  -1.2742877279324058e-02 -2.2088133793262552e-02 0.0000000000000000e+00  -2.8681762586250860e-02 -9.0215777599259497e-03 0.0000000000000000e+00  -2.7904750699480292e-02 -1.2543845954284606e-02 0.0000000000000000e+00  -2.3278120669999049e-02 -1.1580981964746086e-02 0.0000000000000000e+00  -1.0100259669859498e-02 -2.0792864893414673e-02 0.0000000000000000e+00  -2.9061654685678184e-02 -1.3127844142064112e-02 0.0000000000000000e+00  -1.0732292880257725e-02 -2.1799973683924039e-02 0.0000000000000000e+00  -2.9755491421850300e-02 -2.7488434195814523e-02 0.0000000000000000e+00  -1.8173371833113627e-02 -2.0446547621765697e-02 0.0000000000000000e+00  -2.1633633181802458e-02 -1.7224675397489113e-02 0.0000000000000000e+00  -2.5554110752933283e-02 -1.2772442531584029e-02 0.0000000000000000e+00  -2.5563225720261186e-02 -2.0443013875392435e-02 0.0000000000000000e+00  -2.1596801571034274e-02 -9.0215645560603134e-03 0.0000000000000000e+00  -2.9695943814381311e-02 -2.6986281249598842e-02 0.0000000000000000e+00  -2.8853041709883193e-02 -2.7168547351742105e-02 0.0000000000000000e+00  -2.2710644934674402e-02 -2.5780725940907492e-02 0.0000000000000000e+00  -9.9308073900621387e-03 -2.8157811495304913e-02 0.0000000000000000e+00  -1.0384488856409076e-02 -1.0059589550578537e-02 0.0000000000000000e+00  -1.1779637295604500e-02 -1.6435219066648469e-02 0.0000000000000000e+00  -1.5634537269758626e-02 -8.9202714870043574e-03 0.0000000000000000e+00  -2.7630682173747676e-02 -2.5796154974002842e-02 0.0000000000000000e+00  -1.7617334516863294e-02 -2.8539430152863896e-02 0.0000000000000000e+00  -2.8907650611563408e-02 -8.8691854553770086e-03 0.0000000000000000e+00  -1.8173779978749006e-02 -1.6417333628432645e-02 0.0000000000000000e+00  -1.6319927147074705e-02 -1.2224367887895250e-02 0.0000000000000000e+00  -2.1359795743281628e-02 -1.2073338642933777e-02 0.0000000000000000e+00  -1.2643787861995321e-02 -1.2665027884764011e-02 0.0000000000000000e+00  -1.1053858340379199e-02 -1.7823706042751037e-02 0.0000000000000000e+00  -1.7030622534505050e-02 -1.9606171703752957e-02 0.0000000000000000e+00  -1.8609013484959577e-02 -2.6333883809897596e-02 0.0000000000000000e+00  -2.7662422011874872e-02 -2.8618218167619180e-02 0.0000000000000000e+00  -2.4800100233441362e-02 -2.8433625426200610e-02 0.0000000000000000e+00  -2.3217105077414178e-02 -8.9314929622175167e-03 0.0000000000000000e+00  -2.1635470085016095e-02 -1.1402215700280782e-02 0.0000000000000000e+00  -1.7644718853675474e-02 -2.6778519366506767e-02 0.0000000000000000e+00  -2.2909674096353680e-02 -1.6226036579713464e-02 0.0000000000000000e+00  -1.0362258922163345e-02 -2.2490048938961865e-02 0.0000000000000000e+00  -2.1521735980757437e-02 -1.6484807497062316e-02 0.0000000000000000e+00  -2.7419779757176122e-02 -1.0616697761105158e-02 0.0000000000000000e+00  -2.8433711440632621e-02 -1.0744768595497436e-02 0.0000000000000000e+00  -1.1481212515355872e-02 -8.9695198922164175e-03 0.0000000000000000e+00  -1.7599977629221327e-02 -2.4579265640530607e-02 0.0000000000000000e+00  -2.2369717293066204e-02 -2.6322056056529607e-02 0.0000000000000000e+00  -1.3364684994616478e-02 -2.7672040898041331e-02 0.0000000000000000e+00  -1.0145559705726491e-02 -1.1756117968628910e-02 0.0000000000000000e+00  -2.8710322429583685e-02 -2.8405933643898842e-02 0.0000000000000000e+00  -1.3496018528543570e-02 -2.8531180969267187e-02 0.0000000000000000e+00  -1.0748627968371454e-02 -2.7002133859524782e-02 0.0000000000000000e+00  -2.9624433384728321e-02 -2.0988425773943793e-02 0.0000000000000000e+00  -1.1516803303684859e-02 -1.2356620873800156e-02 0.0000000000000000e+00  -2.8939987814068507e-02 -2.4577020976790858e-02 0.0000000000000000e+00  -1.5910517066865044e-02 -1.0799727131951039e-02 0.0000000000000000e+00  -1.3412517372635629e-02 -1.2984950572321732e-02 0.0000000000000000e+00  -1.1396818885879009e-02 -2.1235735609712748e-02 0.0000000000000000e+00  -1.7599980519587909e-02 -1.7225221558831660e-02 0.0000000000000000e+00  -1.4020139440328205e-02 -1.9241362830689380e-02 0.0000000000000000e+00  -2.9747396398435898e-02 -2.0311372837156613e-02 0.0000000000000000e+00  -2.8559641807460057e-02 -2.0924134540266794e-02 0.0000000000000000e+00  -1.7667510125156834e-02 -2.0333579384711888e-02 0.0000000000000000e+00  -2.8009229199945779e-02 -1.6518847363702259e-02 0.0000000000000000e+00  -2.1755536459517704e-02 -2.8307925237541973e-02 0.0000000000000000e+00  -2.9470219837665391e-02 -1.0937394257150176e-02 0.0000000000000000e+00  -9.9588808642912200e-03 -2.4158914229797532e-02 0.0000000000000000e+00  -1.3132548596330031e-02 -2.5416502968544377e-02 0.0000000000000000e+00  -1.0977935430578310e-02 -1.0070508611467599e-02 0.0000000000000000e+00  -1.7617566016296736e-02 -1.0787498726339632e-02 0.0000000000000000e+00  -2.2233324863919712e-02 -2.6344246202228132e-02 0.0000000000000000e+00  -1.3806725088721114e-02 -1.7157325930377932e-02 0.0000000000000000e+00  -2.5302481575483794e-02 -2.3318701205090536e-02 0.0000000000000000e+00  -1.2957819810792746e-02 -2.6908572873772577e-02 0.0000000000000000e+00  -1.1288219198292081e-02 -2.7818002710810644e-02 0.0000000000000000e+00  -1.7617334516863294e-02 -2.8539430152863896e-02 0.0000000000000000e+00  -1.9471285236913299e-02 -2.8492279782880273e-02 0.0000000000000000e+00  -2.6751529091706111e-02 -2.0211098311351081e-02 0.0000000000000000e+00  -2.9504253994297958e-02 -1.9299060885474228e-02 0.0000000000000000e+00  -2.7735708399149902e-02 -2.4641406062790194e-02 0.0000000000000000e+00  -1.3147074373675219e-02 -2.0446821865954298e-02 0.0000000000000000e+00  -2.9545894637505978e-02 -1.2584040974326079e-02 0.0000000000000000e+00  -1.7667575517122978e-02 -1.2994840476667373e-02 0.0000000000000000e+00  -2.1521735980757437e-02 -1.6484807497062316e-02 0.0000000000000000e+00  -1.4154600849384710e-02 -1.6485486309600946e-02 0.0000000000000000e+00  -1.7667510125156834e-02 -2.0333579384711888e-02 0.0000000000000000e+00  -2.1847372774987970e-02 -1.2771108336733663e-02 0.0000000000000000e+00  -2.4495353391447466e-02 -1.0231338911328611e-02 0.0000000000000000e+00  -1.6731844560441671e-02 -9.8308668046120078e-03 0.0000000000000000e+00  -1.0928759359867519e-02 -9.0548308995209627e-03 0.0000000000000000e+00  -1.4049240319016013e-02 -9.4288691947725500e-03 0.0000000000000000e+00  -2.9653138597568171e-02 -2.8582520159926121e-02 0.0000000000000000e+00  -1.7667575517122978e-02 -1.2994840476667373e-02 0.0000000000000000e+00  -1.4154600849384710e-02 -1.6485486309600946e-02 0.0000000000000000e+00  -2.9400665063582385e-02 -2.5383387455301446e-02 0.0000000000000000e+00  -1.0971314218157637e-02 -1.0853283251642747e-02 0.0000000000000000e+00  -1.0188157977291064e-02 -1.5119304642367042e-02 0.0000000000000000e+00  -1.9311510626113169e-02 -8.9867012981157263e-03 0.0000000000000000e+00  -2.3400096905220553e-02 -1.0003755811449105e-02 0.0000000000000000e+00  -2.5694592325650342e-02 -1.8536292721933727e-02 0.0000000000000000e+00  -2.1573538336459714e-02 -2.1196141603651374e-02 0.0000000000000000e+00  -2.2033597059601940e-02 -2.0273684118481829e-02 0.0000000000000000e+00  -1.7617566016296736e-02 -1.0787498726339632e-02 0.0000000000000000e+00  -1.7644674280358028e-02 -9.0367685812785120e-03 0.0000000000000000e+00  -2.5554581690201833e-02 -1.6417143595870088e-02 0.0000000000000000e+00  -1.7599980519587909e-02 -1.7225221558831660e-02 0.0000000000000000e+00  -1.1779637295604500e-02 -1.6435219066648469e-02 0.0000000000000000e+00  -1.8173779978749006e-02 -1.6417333628432645e-02 0.0000000000000000e+00  -1.0117262183991445e-02 -1.6462441204819284e-02 0.0000000000000000e+00  -1.7644718853675474e-02 -2.6778519366506767e-02 0.0000000000000000e+00  -1.7599977629221327e-02 -2.4579265640530607e-02 0.0000000000000000e+00  -1.7644674280358028e-02 -9.0367685812785120e-03 0.0000000000000000e+00  -1.0117262183991445e-02 -1.6462441204819284e-02 0.0000000000000000e+00  -2.5554581690201833e-02 -1.6417143595870088e-02 0.0000000000000000e+00  -2.9594813081249394e-02 -1.6434273453590123e-02 0.0000000000000000e+00  -2.7923294328170534e-02 -1.6461935951305309e-02 0.0000000000000000e+00  -2.9594813081249394e-02 -1.6434273453590123e-02 0.0000000000000000e+00  -2.7923294328170534e-02 -1.6461935951305309e-02 0.0000000000000000e+00  -2.9331309651373819e-02 -2.6645091214504844e-02 0.0000000000000000e+00  -2.4934782841412029e-02 -1.9114652662435085e-02 0.0000000000000000e+00  -2.8170127906266877e-02 -1.2963102333300884e-02 0.0000000000000000e+00  -2.1620925328914162e-02 -2.0432187092616700e-02 0.0000000000000000e+00  -2.9218569752604111e-02 -9.4565190221394084e-03 0.0000000000000000e+00  -2.9698358945888077e-02 -8.9428826868943080e-03 0.0000000000000000e+00  -2.8907000289339645e-02 -9.4012314140122736e-03 0.0000000000000000e+00  -1.4288280675105009e-02 -9.7749481875366046e-03 0.0000000000000000e+00  -1.0160538015136727e-02 -1.3045786625062752e-02 0.0000000000000000e+00  -2.9196202208310817e-02 -1.0576415165820334e-02 0.0000000000000000e+00  -2.5279652331446124e-02 -2.7013225968896836e-02 0.0000000000000000e+00  -1.6219991467147938e-02 -2.8601037473315747e-02 0.0000000000000000e+00  -1.9938026480991872e-02 -2.3608710915769635e-02 0.0000000000000000e+00  -2.8441724674055181e-02 -2.8478265278598404e-02 0.0000000000000000e+00  -1.0161828791514746e-02 -8.9434910363051755e-03 0.0000000000000000e+00  -9.9343620629587081e-03 -2.6704506489197519e-02 0.0000000000000000e+00  -9.9394142150517843e-03 -2.6356074504179733e-02 0.0000000000000000e+00  -2.5372478413222002e-02 -2.7022497260612996e-02 0.0000000000000000e+00  -1.3241220093916418e-02 -2.8621902392419709e-02 0.0000000000000000e+00  -2.4862202829326399e-02 -8.8969302750523376e-03 0.0000000000000000e+00  -1.1844158153844056e-02 -2.4459257567041894e-02 0.0000000000000000e+00  -1.0418778637416640e-02 -2.8162652857978955e-02 0.0000000000000000e+00  -2.1165804871157729e-02 -9.0999517739260519e-03 0.0000000000000000e+00  -2.9218120714551942e-02 -2.8340230541737229e-02 0.0000000000000000e+00  -2.4836622310857058e-02 -1.1048436250714711e-02 0.0000000000000000e+00  -2.5658465779435483e-02 -2.6246942182050825e-02 0.0000000000000000e+00  -2.6291153505975214e-02 -8.9270599064011479e-03 0.0000000000000000e+00  -2.6232310966247552e-02 -1.0693425149220476e-02 0.0000000000000000e+00  -1.1256695759294257e-02 -1.2521180654698242e-02 0.0000000000000000e+00  -1.2293166556969867e-02 -2.8307281898249746e-02 0.0000000000000000e+00  -2.0199701168568184e-02 -1.8293467917246606e-02 0.0000000000000000e+00  -2.7110435487883056e-02 -2.3555293227773614e-02 0.0000000000000000e+00  -2.1053510868070533e-02 -2.3610241998817293e-02 0.0000000000000000e+00  -2.8374616256122656e-02 -1.3208568512832801e-02 0.0000000000000000e+00  -2.9699039873425037e-02 -2.8523270531372689e-02 0.0000000000000000e+00  -2.0984008246552787e-02 -1.4038369103908363e-02 0.0000000000000000e+00  -1.4631573788395047e-02 -1.5818783395257861e-02 0.0000000000000000e+00  -2.9731665964160627e-02 -2.3997631770530357e-02 0.0000000000000000e+00  -1.0608755562757852e-02 -2.8037798346246593e-02 0.0000000000000000e+00  -2.7086882754628519e-02 -2.3088274841193517e-02 0.0000000000000000e+00  -2.7089526897854894e-02 -2.8682487246873365e-02 0.0000000000000000e+00  -2.9057425580093537e-02 -1.6229701270338022e-02 0.0000000000000000e+00  -2.9669990371873001e-02 -1.3383631618504036e-02 0.0000000000000000e+00  -1.9757994502937071e-02 -2.6973368041748998e-02 0.0000000000000000e+00  -1.5029204556764540e-02 -2.3500749578096090e-02 0.0000000000000000e+00  -1.8878143861036395e-02 -2.2518647602916553e-02 0.0000000000000000e+00  -1.0254438159151781e-02 -9.8460241306269763e-03 0.0000000000000000e+00  -2.7437190827122631e-02 -1.5264593791359724e-02 0.0000000000000000e+00  -2.9669435661660158e-02 -2.7962370935074286e-02 0.0000000000000000e+00  -2.0024744607799488e-02 -1.4646581866176837e-02 0.0000000000000000e+00  -2.1893235252127521e-02 -2.7068779613685340e-02 0.0000000000000000e+00  -2.8272224155699528e-02 -2.1751886223758062e-02 0.0000000000000000e+00  -2.0758117422260830e-02 -2.7950627819512394e-02 0.0000000000000000e+00  -2.0433565007664245e-02 -2.8663084634692627e-02 0.0000000000000000e+00  -1.0860635893887824e-02 -9.2695605265837294e-03 0.0000000000000000e+00  -1.6595685521502812e-02 -2.7258593583386739e-02 0.0000000000000000e+00  -1.0067112685437403e-02 -1.0068039302336356e-02 0.0000000000000000e+00  -1.0640293191528932e-02 -1.4078185995464353e-02 0.0000000000000000e+00  -1.5606313379606980e-02 -2.6808826108937516e-02 0.0000000000000000e+00  -2.6936524154148697e-02 -9.2720480779622354e-03 0.0000000000000000e+00  -2.2510233841253439e-02 -2.7770575125034114e-02 0.0000000000000000e+00  -1.3620377947512070e-02 -1.3448015880734280e-02 0.0000000000000000e+00  -2.4181988251461565e-02 -2.8662666350975918e-02 0.0000000000000000e+00  -1.4799746658882547e-02 -2.2299228949165317e-02 0.0000000000000000e+00  -1.4973183642584750e-02 -2.6291428468541257e-02 0.0000000000000000e+00  -1.1232800586615910e-02 -2.4121749129631283e-02 0.0000000000000000e+00  -1.6689670926994183e-02 -9.3640453612903202e-03 0.0000000000000000e+00  -1.1381274825028580e-02 -2.4190876611891489e-02 0.0000000000000000e+00  -1.2028549139406305e-02 -1.5291442528667020e-02 0.0000000000000000e+00  -2.8950939906906691e-02 -1.8975588404086172e-02 0.0000000000000000e+00  -2.4042500501922595e-02 -9.6924603364012887e-03 0.0000000000000000e+00  -2.0933695761724127e-02 -1.0073289308111553e-02 0.0000000000000000e+00  -2.6229036249730352e-02 -2.8262718368476089e-02 0.0000000000000000e+00  -2.1983697884101944e-02 -2.8675006226038424e-02 0.0000000000000000e+00  -1.5314170487165161e-02 -8.9283286344567035e-03 0.0000000000000000e+00  -1.1149116733336840e