<?xml version="1.0"?>
<VTKFile type="UnstructuredGrid"  version="0.1"  >
<UnstructuredGrid>
<Piece  NumberOfPoints="1380" NumberOfCells="2630">
<Points>
<DataArray  type="Float64"  NumberOfComponents="3"  format="ascii">-1 -1 0  1 -1 0  1 1 0  -1 1 0  0 -1 0  1 0 0  0 1 0  -1 0 0  0 0 0  -1 -0.5 0  -0.5 -1 0  -0.5 1 0  -1 0.5 0  1 -0.5 0  0.5 -1 0  1 0.5 0  0.5 1 0  0.4166666666666666 -0.4166666666666667 0  -0.4166666666666667 0.4166666666666667 0  -0.25 -0.5 0  0.5 0.25 0  -0.4861111111111112 -0.06944444444444445 0  0.0732758620689655 0.507183908045977 0  -0.625 -0.625 0  0.625 0.625 0  0.7380952380952381 -0.25 0  -0.7099116161616161 0.2105429292929293 0  -0.25 0.7380952380952381 0  0.105392156862745 -0.6348039215686275 0  0.6770833333333334 -0.6770833333333333 0  -0.6770833333333334 0.6770833333333334 0  0.3472222222222222 -0.06944444444444446 0  -0.7264957264957265 -0.3044871794871795 0  0.3141940982507127 0.7297313660835709 0  0.02049587951122483 -0.3227479397556124 0  -0.2690972222222223 0.1475694444444444 0  0.3859500089908372 -0.7274430156831472 0  -0.2228477945123298 -0.1761765495248019 0  0.2182539682539683 0.1884920634920635 0  0.75 0.375 0  -0.145442219440968 -0.7602211097204841 0  0.7088913690476191 0.0427827380952381 0  -0.75 -1 0  -1 -0.75 0  1 0.75 0  0.75 1 0  -0.7439982703698937 -0.04614153195464455 0  -0.4609235096577606 -0.3356498099556895 0  0.4063134471431929 0.4895621842856023 0  0.25 -1 0  -0.25 -1 0  -0.75 1 0  0.75 -1 0  -1 -0.25 0  -1 0.25 0  1 -0.25 0  -0.25 1 0  1 -0.75 0  -1 0.75 0  0.25 1 0  1 0.25 0  -0.4041423272138783 -0.7597141090712928 0  0.06500839607911253 0.7578103030529481 0  -0.1572801182352047 0.3838997021864289 0  -0.6528005242053915 0.4409494757946086 0  -0.4930160984848485 0.1544744318181818 0  -0.4732142857142858 0.7752976190476191 0  0.6398809523809523 -0.4538690476190476 0  0.5166054117396399 -0.2161233620965164 0  -0.002273787244753427 0.2232363985975174 0  0.1500564496765022 -0.1524955293952667 0  0.2016720420046758 -0.4410343282803009 0  -0.08495178036419618 0.6274139771124571 0  -0.8367311471133162 0.3642591720794645 0  -0.8333333333333334 -0.625 0  -0.594323836800685 -0.8231079456002283 0  -0.4466957714776065 -0.5349126855671806 0  0.8125 0.5625 0  0.78125 0.78125 0  0.5091392650016769 0.7947130883338923 0  0.125 -0.8382681931833136 0  -0.8184523809523809 -0.8184523809523809 0  -0.07781530426104531 -0.5819319697006881 0  0.5085055196703295 0.04967610411902112 0  0.2918471072074933 -0.276017202318847 0  0.5120763537765269 -0.5898771553229597 0  0.625 -0.8585349462365591 0  0.8158532234335381 -0.8158532234335381 0  -0.5198088446315396 0.5739411553684605 0  -0.8585349462365591 0.625 0  -0.8150493805516597 0.8156205699829586 0  0.8585349462365591 -0.625 0  -0.2688268348649726 0.5439331383603209 0  0.8242100426758139 -0.4436043596336612 0  0.5833756314287952 0.4479378157143976 0  0.8690476190476191 -0.125 0  -0.125 0.8690476190476191 0  -0.8692745600729823 0.125 0  0.8696725120759167 0.125 0  -0.625 0.8711516477451908 0  0.2339522463269718 0.3879558377955778 0  0.2453709502295031 0.5655822922838026 0  0.1730610651637797 0.02021709580868947 0  0.3245402594056757 -0.5644672020485209 0  -0.7291666666666666 -0.4816595441595442 0  -1 -0.375 0  -0.5811140848639904 -0.2127276307675001 0  0.673332592838314 0.2158348143233718 0  0.375 1 0  -0.5714768890989919 0.2985103444040069 0  -1 -0.125 0  -0.8453692574786325 -0.1875 0  -0.3144549134065865 -0.02408675326008025 0  -0.2898414972096258 -0.3336092734780093 0  -0.1075052092206287 -0.4224330421314983 0  -0.05043970703604117 -0.1652278959397459 0  0.6459672950297897 -0.1113415301525317 0  0.4645210271029513 0.6398480556579343 0  0.3512863754411909 0.0937979496253573 0  -0.6063160985568274 0.03891469652249891 0  -0.3428819444444445 0.8690476190476191 0  0.625 1 0  -0.1602164796159982 0.02697860906625157 0  0.04648110064133829 -0.4808416424239687 0  1 0.875 0  -0.3836102479201657 0.6484936449177356 0  -0.3776011723096096 0.263078478984336 0  -0.6024978259969829 -0.3949628096211138 0  0.125 1 0  0.2010781308272777 0.8456221018461906 0  0.2822509696388829 -0.845902544691141 0  -0.3285533674953515 -0.6289773550938936 0  0.3461306793221754 0.278777492464833 0  0.4737475672408696 -0.8508448959534423 0  0.2384632828836344 -0.7029523187242811 0  -0.004777287059791593 0.3759269695907358 0  -0.8499735021850066 -0.3912320205328522 0  0.1222536293721587 0.2963971539625205 0  -0.3769456520999688 -0.203572526805711 0  -0.2749617205755651 -0.8464290792698902 0  0.004805888512766143 -0.747174355248311 0  -0.125 -1 0  -0.06001061822252458 -0.8724007765244854 0  0.875 0.4375 0  0.854421179608893 0.271342359217786 0  0.875 1 0  -0.1499861095763589 0.2358309656934888 0  0.3381943639137225 0.8663061796405532 0  -0.7853090110442228 0.4998412775277108 0  0.7398165998560814 -0.5535192694951373 0  0.1580042122341573 -0.3100246140259917 0  -0.7291666666666667 -0.7142857142857142 0  -0.375 -1 0  0.6483368386154684 0.8514905990110488 0  -0.1295370103291928 -0.2826118305021242 0  0.07458201853700455 0.1123894386563915 0  0.6146465857036327 -0.3161203659316075 0  0.5551898493894731 -0.740296118159085 0  0.375 -1 0  0.482702798370208 -0.084133350091034 0  0.87890625 0.68359375 0  -0.05917195534525846 0.4971092425697621 0  0.1260710309213975 0.6343750312956699 0  0.8690476190476191 -0.3077066815262848 0  -0.2912010232560567 0.3668168386732139 0  -0.875 1 0  -1 0.875 0  1 -0.875 0  0.875 -1 0  -0.8689564281364567 -0.006189266075306407 0  -0.7449425635110547 0.08458938160051771 0  -0.7150266761936593 -0.1739444581417552 0  -0.5260034831318311 -0.711099823962112 0  -0.4724626808827322 -0.871722230709409 0  0.4734436795977052 0.377714794132168 0  -0.875 -1 0  -1 -0.875 0  0.6927189078571988 0.5156567235715964 0  -0.3742497615796874 -0.4296005251260107 0  -0.1969436423297711 -0.6387157229772615 0  -0.6179496409766825 -0.08933356056510935 0  -0.424405057115988 0.04452428810878029 0  -0.08479048335844169 0.1279607007132633 0  0.003830300099055113 0.8712085230656206 0  0.8748778838820267 -1.379218479898026e-05 0  -0.375 1 0  -0.625 1 0  1 0.125 0  -0.125 1 0  1 -0.375 0  1 -0.125 0  1 -0.625 0  0.625 -1 0  0.125 -1 0  -0.625 -1 0  -1 -0.625 0  -1 0.125 0  -1 0.375 0  -1 0.625 0  1 0.375 0  1 0.625 0  0.6325660748712082 0.3335187599557389 0  -0.06420945895056573 0.7549874027425891 0  -0.8769015540914771 0.2478802253893416 0  0.871875 0.871875 0  -0.6868091492840067 0.3270978624973681 0  -0.5363597469565949 0.412994850055505 0  -0.6803734992638302 0.5574295000651103 0  -0.7076253581162534 -0.8803439094224437 0  -0.8778089002295137 -0.5106896447504627 0  -0.3860184984222981 0.530566778071246 0  0.6109900617121508 0.1128453077697081 0  0.3896945134930274 -0.1915382873255086 0  0.7605656944697778 -0.06822134873122943 0  0.3576151269893478 0.5948388411612135 0  -0.5689902680792265 -0.5143596830118065 0  0.6262446286847614 -0.5735657901943212 0  0.2030558252325225 -0.5625263842513452 0  0.6123273142928579 0.7407533260723429 0  0.4016460890123554 -0.3042863223111857 0  -0.59039693199147 0.7578418819188018 0  0.7276932493917544 -0.3705808024528924 0  0.5222536818742854 -0.4713886230400014 0  -0.5101986527137737 0.8848365765607674 0  0.510560172809238 0.5356013299918891 0  -0.3603569195756083 0.75823710606415 0  0.1967279277813232 0.728226870058472 0  -0.6086880986371127 0.1545624071548516 0  -0.38105366729386 0.1511189987807864 0  -0.2944659463671584 -0.7359061804869591 0  0.5060729154966499 -0.3475227845833823 0  -0.09281616240412746 -0.06197858250969457 0  0.7649739583333334 0.6673177083333334 0  0.7628906249999999 0.890234375 0  -0.2666864184909611 0.2585504071132311 0  0.3635064892129658 0.3878003602709461 0  -0.2339409722222222 0.8901937905844155 0  -0.1718792125974916 -0.8957733325456778 0  0.1001768566329531 0.4023510017391879 0  0.3120260172693757 -0.4540546875576884 0  0.7804062804433681 0.1896628610854537 0  0.4087715451998049 0.187961780041608 0  -0.1584963477271457 0.5451611892421655 0  -0.8926817849258324 0.463022006336401 0  0.2338091473445219 -0.07576267331277289 0  0.08171112182813692 -0.2349087687359925 0  0.04635385178956847 -0.1044635073718474 0  -0.4377391632114205 -0.6448874471423088 0  -0.1907678351227189 0.6480215912813945 0  0.300605946475244 0.4741444604171038 0  -0.2145033720757486 -0.06751709909419711 0  0.6069191921170397 -0.005492331448357812 0  0.0214718770761248 0.6032397936031719 0  0.5476675683364878 0.8992752415326501 0  0.4387475014316537 0.9093708953002239 0  -0.4932997685306436 -0.4381009159993523 0  0.2515197695339056 -0.1791673369138964 0  -0.7291666666666667 -0.6088789682539681 0  -0.9166666666666667 -0.6875 0  0.620579540363709 -0.2122431523583302 0  -0.484950136419973 0.6719440339397442 0  0.2857044415400258 0.0137589173127316 0  -0.8945708364098356 -0.288306105327986 0  0.4043102720140535 0.7842914560451557 0  0.04123256238752064 -0.9026968245801402 0  0.2003676884403109 -0.9091888601740487 0  0.1068775558538842 -0.7373377130403223 0  -0.4804566783514427 -0.1763307203045643 0  0.108286342087769 -0.3993789328997278 0  -0.191883080105361 -0.3640821726430649 0  -0.07025064492006244 0.2984876656890053 0  -0.7039324641409584 0.788312126296613 0  -0.7311286585775438 0.8932502354831682 0  0.5171409396884947 0.1503852691889257 0  0.4229392823658633 -0.003216522184234835 0  -0.5621736087218259 -0.919558629836806 0  -0.626474064879544 -0.7266572613636506 0  0.2446828746617422 0.2867616783302419 0  0.1759429608742923 0.4776611759306416 0  -0.3468240303741654 -0.5260416435617549 0  -0.7465808808425306 0.4069574477998361 0  -0.7819962170660292 0.2802441065650652 0  -0.3742623214119594 -0.8547800509641984 0  0.1014498009713561 0.8506721983266377 0  0.4285217620918213 -0.5230190595570253 0  0.4091738370487775 -0.6256346204225141 0  0.78125 0.46875 0  0.90625 0.53125 0  -0.4791801348852565 0.2553992655702126 0  0.7843318610782772 -0.7086046956885941 0  0.8909728264971901 -0.7355183796514634 0  0.7041908166528879 -0.7830649143180282 0  0.7311821352
[...]
<PointData  Vectors="f_22"> 
<DataArray  type="Float64"  Name="f_22"  NumberOfComponents="3" format="ascii">-2.8352709045587356e-03 -2.8789081211725263e-03 0.0000000000000000e+00  -2.8352709045587356e-03 -2.8789081211725263e-03 0.0000000000000000e+00  -2.8352709045587356e-03 -2.8789081211725263e-03 0.0000000000000000e+00  -2.8352709045587356e-03 -2.8789081211725263e-03 0.0000000000000000e+00  -2.8352162443006645e-03 -2.9255035042586685e-03 0.0000000000000000e+00  -2.8850875681938558e-03 -2.8788436225959647e-03 0.0000000000000000e+00  -2.8352162443006645e-03 -2.9255035042586685e-03 0.0000000000000000e+00  -2.8850875681938558e-03 -2.8788436225959647e-03 0.0000000000000000e+00  -2.8851308811967979e-03 -2.9255734566465599e-03 0.0000000000000000e+00  -2.4839486153154220e-03 -2.8788718259102376e-03 0.0000000000000000e+00  -2.8352463006504204e-03 -2.5259924925956413e-03 0.0000000000000000e+00  -2.8352463006504204e-03 -2.5259924925956413e-03 0.0000000000000000e+00  -3.2364146771930620e-03 -2.8788652257141010e-03 0.0000000000000000e+00  -2.4839486153154220e-03 -2.8788718259102376e-03 0.0000000000000000e+00  -2.8352344701545310e-03 -3.2784437350349654e-03 0.0000000000000000e+00  -3.2364146771930620e-03 -2.8788652257141010e-03 0.0000000000000000e+00  -2.8352344701545310e-03 -3.2784437350349654e-03 0.0000000000000000e+00  -2.5031950314858948e-03 -3.2716357182340258e-03 0.0000000000000000e+00  -3.2300112306345523e-03 -2.5448237005782277e-03 0.0000000000000000e+00  -2.4839774220932645e-03 -2.6526898535014659e-03 0.0000000000000000e+00  -3.1438607398279399e-03 -3.2784564749977992e-03 0.0000000000000000e+00  -2.8030991857762614e-03 -2.5273721346313806e-03 0.0000000000000000e+00  -3.2357532493499921e-03 -3.0107875711473122e-03 0.0000000000000000e+00  -2.5030864749336344e-03 -2.5457358665030528e-03 0.0000000000000000e+00  -3.1982534251732303e-03 -3.2408923790154176e-03 0.0000000000000000e+00  -2.6117445663768205e-03 -3.1620922691590813e-03 0.0000000000000000e+00  -3.1109319056331726e-03 -2.5905552718467808e-03 0.0000000000000000e+00  -3.1189765297090898e-03 -2.6526523862305047e-03 0.0000000000000000e+00  -2.5069253641978860e-03 -3.0465560374038159e-03 0.0000000000000000e+00  -2.5275126079581157e-03 -3.2093597558970734e-03 0.0000000000000000e+00  -3.1664869280733218e-03 -2.5704014824102809e-03 0.0000000000000000e+00  -2.8031047302499589e-03 -3.2467153354278425e-03 0.0000000000000000e+00  -2.5670888279966104e-03 -2.6020586463720930e-03 0.0000000000000000e+00  -3.1261374022974690e-03 -3.2290096190578212e-03 0.0000000000000000e+00  -2.5539712888376278e-03 -2.9497210061638890e-03 0.0000000000000000e+00  -3.0507278244560408e-03 -2.6361991094874036e-03 0.0000000000000000e+00  -2.5596112781842944e-03 -3.2627065707055707e-03 0.0000000000000000e+00  -2.6836491143131099e-03 -2.6776849982680273e-03 0.0000000000000000e+00  -3.0908916321645955e-03 -3.1585244484276290e-03 0.0000000000000000e+00  -3.2173298416966361e-03 -3.1517577846585051e-03 0.0000000000000000e+00  -2.5846404664331014e-03 -2.7571630010338887e-03 0.0000000000000000e+00  -2.9352874152651183e-03 -3.1860247175878385e-03 0.0000000000000000e+00  -2.8352571128593073e-03 -2.6197221038981181e-03 0.0000000000000000e+00  -2.5765459765704798e-03 -2.8788979099351828e-03 0.0000000000000000e+00  -3.1085918296518212e-03 -2.8788870407507401e-03 0.0000000000000000e+00  -2.8352598914595608e-03 -3.1517519561500332e-03 0.0000000000000000e+00  -2.8304849602193518e-03 -2.6150095851601145e-03 0.0000000000000000e+00  -2.5453243708735401e-03 -2.5317023197106974e-03 0.0000000000000000e+00  -3.2370544012589250e-03 -3.2690576265948304e-03 0.0000000000000000e+00  -2.8352221215020572e-03 -3.1847286837917220e-03 0.0000000000000000e+00  -2.8352220568195999e-03 -2.6526655618478072e-03 0.0000000000000000e+00  -2.8352571128593073e-03 -2.6197221038981181e-03 0.0000000000000000e+00  -2.8352598914595608e-03 -3.1517519561500332e-03 0.0000000000000000e+00  -2.6117496699944779e-03 -2.8788564929468478e-03 0.0000000000000000e+00  -3.1438252244569065e-03 -2.8788503118693794e-03 0.0000000000000000e+00  -2.6117496699944779e-03 -2.8788564929468478e-03 0.0000000000000000e+00  -2.8352220568195999e-03 -2.6526655618478072e-03 0.0000000000000000e+00  -2.5765459765704798e-03 -2.8788979099351828e-03 0.0000000000000000e+00  -3.1085918296518212e-03 -2.8788870407507401e-03 0.0000000000000000e+00  -2.8352221215020572e-03 -3.1847286837917220e-03 0.0000000000000000e+00  -3.1438252244569065e-03 -2.8788503118693794e-03 0.0000000000000000e+00  -2.5842561521205168e-03 -2.5498518720586069e-03 0.0000000000000000e+00  -3.1015209891361020e-03 -3.0013474222946881e-03 0.0000000000000000e+00  -3.2205484462383333e-03 -2.7443304712715523e-03 0.0000000000000000e+00  -3.2345248926747140e-03 -2.5577122246545395e-03 0.0000000000000000e+00  -3.0577276920646114e-03 -2.5265792845246158e-03 0.0000000000000000e+00  -3.0852402907848380e-03 -2.5292668925819624e-03 0.0000000000000000e+00  -2.4914626146939891e-03 -3.2327240980847805e-03 0.0000000000000000e+00  -2.6432963802904366e-03 -3.2766870223185241e-03 0.0000000000000000e+00  -3.1220033054156732e-03 -2.9228897357353638e-03 0.0000000000000000e+00  -2.7088932234666354e-03 -3.0938873698288659e-03 0.0000000000000000e+00  -2.4949637804077994e-03 -3.1437494419308985e-03 0.0000000000000000e+00  -3.1969213770781770e-03 -2.8254767261474733e-03 0.0000000000000000e+00  -3.2130082158389494e-03 -2.6972273354445870e-03 0.0000000000000000e+00  -2.5030766350434314e-03 -2.6939280144632730e-03 0.0000000000000000e+00  -2.6405480436911357e-03 -2.5356046348548344e-03 0.0000000000000000e+00  -2.4835177155592015e-03 -2.5351709713680457e-03 0.0000000000000000e+00  -3.2243407140688692e-03 -3.0918287377024300e-03 0.0000000000000000e+00  -3.0795987194346388e-03 -3.1228583311503043e-03 0.0000000000000000e+00  -3.0664325153058323e-03 -3.2776308956024795e-03 0.0000000000000000e+00  -2.6553303411281158e-03 -3.0677231675622333e-03 0.0000000000000000e+00  -2.6360884617943753e-03 -2.6794861289363646e-03 0.0000000000000000e+00  -2.4900042585776910e-03 -2.8337921894664641e-03 0.0000000000000000e+00  -2.9433011064357423e-03 -3.2776820614375340e-03 0.0000000000000000e+00  -2.5894352988788693e-03 -3.2150141846944871e-03 0.0000000000000000e+00  -2.4918735695395270e-03 -3.2772535136729479e-03 0.0000000000000000e+00  -2.6759182661657923e-03 -3.2408632715719859e-03 0.0000000000000000e+00  -2.6336073321135581e-03 -3.0883889925827700e-03 0.0000000000000000e+00  -3.2205228872982982e-03 -2.5252457540381476e-03 0.0000000000000000e+00  -3.1982240688160617e-03 -2.7193969248679607e-03 0.0000000000000000e+00  -3.0452508321735039e-03 -2.6762337037196174e-03 0.0000000000000000e+00  -2.5030504025054245e-03 -3.0428855893558284e-03 0.0000000000000000e+00  -3.2293665021725319e-03 -2.6364010066599812e-03 0.0000000000000000e+00  -2.4942119684992110e-03 -3.0796827203037995e-03 0.0000000000000000e+00  -3.2354783321423618e-03 -3.2595805530135067e-03 0.0000000000000000e+00  -2.7392006454228994e-03 -3.0312312766093874e-03 0.0000000000000000e+00  -2.9877340760865851e-03 -2.7797600044094507e-03 0.0000000000000000e+00  -3.0271608528656371e-03 -2.7305783962299204e-03 0.0000000000000000e+00  -3.0271704050323835e-03 -3.0305421251143692e-03 0.0000000000000000e+00  -2.9854167061520481e-03 -2.5457110285990701e-03 0.0000000000000000e+00  -3.2219651871150286e-03 -3.1718357736040177e-03 0.0000000000000000e+00  -3.2233655079087274e-03 -3.1811112590909543e-03 0.0000000000000000e+00  -2.9089717435005252e-03 -3.1168423387365101e-03 0.0000000000000000e+00  -2.4865964740884128e-03 -3.2349120326497756e-03 0.0000000000000000e+00  -2.4860355511342924e-03 -2.6039974665049365e-03 0.0000000000000000e+00  -2.5221171655406510e-03 -2.8788598652666033e-03 0.0000000000000000e+00  -2.6466275219841962e-03 -2.5322687714875647e-03 0.0000000000000000e+00  -3.1156102754592869e-03 -3.2119291900104124e-03 0.0000000000000000e+00  -2.8352282772652797e-03 -3.2587250204022195e-03 0.0000000000000000e+00  -3.1782422504179259e-03 -2.5302131182732288e-03 0.0000000000000000e+00  -2.7392093603308310e-03 -2.8788380639737233e-03 0.0000000000000000e+00  -2.6718691303838312e-03 -2.7058975117707717e-03 0.0000000000000000e+00  -2.8566238633582742e-03 -2.6009831092438204e-03 0.0000000000000000e+00  -2.5466716018252115e-03 -2.6194053113866760e-03 0.0000000000000000e+00  -2.5010985211236384e-03 -2.7995895471652670e-03 0.0000000000000000e+00  -2.6952183195463240e-03 -2.8659078190311962e-03 0.0000000000000000e+00  -2.7546404658423517e-03 -3.2292033666790568e-03 0.0000000000000000e+00  -3.1900914384458043e-03 -3.2787218308419604e-03 0.0000000000000000e+00  -2.9933296324320797e-03 -3.2486545242496174e-03 0.0000000000000000e+00  -2.9308036804783105e-03 -2.5391162614420799e-03 0.0000000000000000e+00  -2.9877398116768049e-03 -2.5819320308838969e-03 0.0000000000000000e+00  -2.8352396516789706e-03 -3.2408802447301465e-03 0.0000000000000000e+00  -2.9168948728284802e-03 -2.7412086746139222e-03 0.0000000000000000e+00  -2.4861300463022902e-03 -2.9800436008847759e-03 0.0000000000000000e+00  -2.9811317894652650e-03 -2.8788879891001443e-03 0.0000000000000000e+00  -3.1849455855783634e-03 -2.5591782224890043e-03 0.0000000000000000e+00  -3.1537871212428750e-03 -2.5622042294444645e-03 0.0000000000000000e+00  -2.5123556241871980e-03 -2.5379676321503806e-03 0.0000000000000000e+00  -2.8352194024172397e-03 -3.0677119611847723e-03 0.0000000000000000e+00  -3.0134997094796961e-03 -3.1431909532457932e-03 0.0000000000000000e+00  -2.6629920516612897e-03 -3.2085124482099337e-03 0.0000000000000000e+00  -2.5046133417695056e-03 -2.5912301902254083e-03 0.0000000000000000e+00  -3.1651446261101875e-03 -3.2462062764564677e-03 0.0000000000000000e+00  -2.6680071665895824e-03 -3.2790709210564319e-03 0.0000000000000000e+00  -2.5429974411178453e-03 -3.1754901288122491e-03 0.0000000000000000e+00  -3.2176715788731669e-03 -2.9199114524721226e-03 0.0000000000000000e+00  -2.5140608291932399e-03 -2.7106055488714058e-03 0.0000000000000000e+00  -3.1769404652980580e-03 -3.0648568397990397e-03 0.0000000000000000e+00  -2.6556708326563650e-03 -2.5625727289265098e-03 0.0000000000000000e+00  -2.6635434773489533e-03 -2.6313088351852649e-03 0.0000000000000000e+00  -2.5743078406315631e-03 -2.9311939043583260e-03 0.0000000000000000e+00  -2.8352146976885480e-03 -2.7797689155113171e-03 0.0000000000000000e+00  -2.6903902479010811e-03 -2.8545874817828181e-03 0.0000000000000000e+00  -3.2340560715005563e-03 -3.0246295028730471e-03 0.0000000000000000e+00  -3.1598420566759217e-03 -3.0473900903250756e-03 0.0000000000000000e+00  -2.8352595420515297e-03 -3.0246381979188992e-03 0.0000000000000000e+00  -3.1325174142491918e-03 -2.7522302521383168e-03 0.0000000000000000e+00  -2.9908244508663746e-03 -3.2422286149141324e-03 0.0000000000000000e+00  -3.2364028954954506e-03 -2.6490283718211619e-03 0.0000000000000000e+00  -2.4850643723313705e-03 -3.1606252321948075e-03 0.0000000000000000e+00  -2.5630105208502220e-03 -3.1019256526332319e-03 0.0000000000000000e+00  -2.5505260629826083e-03 -2.6040099894088157e-03 0.0000000000000000e+00  -2.8352335520905876e-03 -2.5635505876637982e-03 0.0000000000000000e+00  -3.0071457419228878e-03 -3.2278520838132222e-03 0.0000000000000000e+00  -2.5840835066234919e-03 -2.7747567447383914e-03 0.0000000000000000e+00  -3.0136998482510301e-03 -3.0122856740981913e-03 0.0000000000000000e+00  -2.5585895705940559e-03 -3.2460367242653672e-03 0.0000000000000000e+00  -2.5690554470392834e-03 -3.2687557646745614e-03 0.0000000000000000e+00  -2.8352282772652797e-03 -3.2587250204022195e-03 0.0000000000000000e+00  -2.7859422396854855e-03 -3.2791446880336755e-03 0.0000000000000000e+00  -3.1619616227961415e-03 -3.0202559985279655e-03 0.0000000000000000e+00  -3.2366091768837382e-03 -2.8556064358394549e-03 0.0000000000000000e+00  -3.1931543096858778e-03 -3.0688860933355804e-03 0.0000000000000000e+00  -2.5646721049823041e-03 -3.0312287006767102e-03 0.0000000000000000e+00  -3.2140691989981439e-03 -2.6182887181992079e-03 0.0000000000000000e+00  -2.8352688542814938e-03 -2.7367208630858482e-03 0.0000000000000000e+00  -2.9811317894652650e-03 -2.8788879891001443e-03 0.0000000000000000e+00  -2.6931997936865217e-03 -2.8789071475956722e-03 0.0000000000000000e+00  -2.8352595420515297e-03 -3.0246381979188992e-03 0.0000000000000000e+00  -2.8777707853825611e-03 -2.7302576400424976e-03 0.0000000000000000e+00  -2.9830323671071381e-03 -2.6157310957719347e-03 0.0000000000000000e+00  -2.6859595202872767e-03 -2.5940299422057590e-03 0.0000000000000000e+00  -2.5483776427997003e-03 -2.5253692405475332e-03 0.0000000000000000e+00  -2.6897285115866096e-03 -2.5294249625617488e-03 0.0000000000000000e+00  -3.2183610381032045e-03 -3.2791005951479067e-03 0.0000000000000000e+00  -2.8352688542814938e-03 -2.7367208630858482e-03 0.0000000000000000e+00  -2.6931997936865217e-03 -2.8789071475956722e-03 0.0000000000000000e+00  -3.2347564043762908e-03 -3.1982996780117088e-03 0.0000000000000000e+00  -2.4986136001005198e-03 -2.5639693413396472e-03 0.0000000000000000e+00  -2.5086015411773578e-03 -2.7030166413279568e-03 0.0000000000000000e+00  -2.7799271323002898e-03 -2.5430731921550162e-03 0.0000000000000000e+00  -2.9373283669438563e-03 -2.5420418626538577e-03 0.0000000000000000e+00  -3.0303635818007598e-03 -2.8257159621425934e-03 0.0000000000000000e+00  -2.9853129086156445e-03 -2.9300401691896810e-03 0.0000000000000000e+00  -2.8850679234188278e-03 -3.0247257673899301e-03 0.0000000000000000e+00  -2.8352335520905876e-03 -2.5635505876637982e-03 0.0000000000000000e+00  -2.8352446030833040e-03 -2.5457200998682279e-03 0.0000000000000000e+00  -3.0271577094384220e-03 -2.8788488318458798e-03 0.0000000000000000e+00  -2.8352146976885480e-03 -2.7797689155113171e-03 0.0000000000000000e+00  -2.5221171655406510e-03 -2.8788598652666033e-03 0.0000000000000000e+00  -2.7392093603308310e-03 -2.8788380639737233e-03 0.0000000000000000e+00  -2.5030642478669563e-03 -2.8788762603566150e-03 0.0000000000000000e+00  -2.8352396516789706e-03 -3.2408802447301465e-03 0.0000000000000000e+00  -2.8352194024172397e-03 -3.0677119611847723e-03 0.0000000000000000e+00  -2.8352446030833040e-03 -2.5457200998682279e-03 0.0000000000000000e+00  -2.5030642478669563e-03 -2.8788762603566150e-03 0.0000000000000000e+00  -3.0271577094384220e-03 -2.8788488318458798e-03 0.0000000000000000e+00  -3.2173091494409295e-03 -2.8788610763878083e-03 0.0000000000000000e+00  -3.1982393202016303e-03 -2.8788840669439122e-03 0.0000000000000000e+00  -3.2173091494409295e-03 -2.8788610763878083e-03 0.0000000000000000e+00  -3.1982393202016303e-03 -2.8788840669439122e-03 0.0000000000000000e+00  -3.1985961083820028e-03 -3.2368523794820661e-03 0.0000000000000000e+00  -3.1040741702543458e-03 -2.8496641489918306e-03 0.0000000000000000e+00  -3.1421681846574650e-03 -2.7386760722025827e-03 0.0000000000000000e+00  -2.9846413847280416e-03 -3.0281278981430567e-03 0.0000000000000000e+00  -3.1951235751863571e-03 -2.5759940829416174e-03 0.0000000000000000e+00  -3.2291419720210813e-03 -2.5257565520973848e-03 0.0000000000000000e+00  -3.2258018941026495e-03 -2.5722577111082861e-03 0.0000000000000000e+00  -2.6988916140854263e-03 -2.5891061373872495e-03 0.0000000000000000e+00  -2.4833390852574190e-03 -2.7396903231205589e-03 0.0000000000000000e+00  -3.2322457272671106e-03 -2.5580022431472204e-03 0.0000000000000000e+00  -3.0141793603906306e-03 -3.2478199787758554e-03 0.0000000000000000e+00  -2.6677470408259644e-03 -3.2639963527182486e-03 0.0000000000000000e+00  -2.8044925327785487e-03 -3.1421856493588575e-03 0.0000000000000000e+00  -3.2125314281159999e-03 -3.2515361024979756e-03 0.0000000000000000e+00  -2.4832437803634262e-03 -2.5298067409493283e-03 0.0000000000000000e+00  -2.4882186052326955e-03 -3.2401881208114127e-03 0.0000000000000000e+00  -2.4862965295356760e-03 -3.1449906881878486e-03 0.0000000000000000e+00  -3.1167331398327986e-03 -3.2472104621498830e-03 0.0000000000000000e+00  -2.5672113288575942e-03 -3.2677029152262498e-03 0.0000000000000000e+00  -3.1014855691197580e-03 -2.5345190002501240e-03 0.0000000000000000e+00  -2.5244474550270334e-03 -3.1708665631425361e-03 0.0000000000000000e+00  -2.4876767407994121e-03 -3.2758581277780195e-03 0.0000000000000000e+00  -2.9700004067434969e-03 -2.5254319202468968e-03 0.0000000000000000e+00  -3.2313032447431620e-03 -3.2774814120660528e-03 0.0000000000000000e+00  -3.1011118088191607e-03 -2.5715045634941936e-03 0.0000000000000000e+00  -3.1273825134812052e-03 -3.1392240997237713e-03 0.0000000000000000e+00  -3.0578013022008882e-03 -2.5398756549048097e-03 0.0000000000000000e+00  -3.0543368573951899e-03 -2.5604672727041829e-03 0.0000000000000000e+00  -2.5658168157203791e-03 -2.6157715496469276e-03 0.0000000000000000e+00  -2.5377589812623775e-03 -3.2778954461501874e-03 0.0000000000000000e+00  -2.8118715162556377e-03 -2.8164326667739640e-03 0.0000000000000000e+00  -3.1731277238733900e-03 -3.1381948651455780e-03 0.0000000000000000e+00  -2.9639058683111714e-03 -3.1401150717783322e-03 0.0000000000000000e+00  -3.1504027624625949e-03 -2.6382196723656590e-03 0.0000000000000000e+00  -3.2219170121929987e-03 -3.2541113876514288e-03 0.0000000000000000e+00  -2.9638900957485756e-03 -2.6672213607462432e-03 0.0000000000000000e+00  -2.7155590069135220e-03 -2.7287796670320140e-03 0.0000000000000000e+00  -3.2263901728262455e-03 -3.0408863722453344e-03 0.0000000000000000e+00  -2.4914263333077795e-03 -3.2276993087369320e-03 0.0000000000000000e+00  -3.0919589566618345e-03 -3.1236357497960239e-03 0.0000000000000000e+00  -3.0904075874272747e-03 -3.2697125724199206e-03 0.0000000000000000e+00  -3.2290752050182568e-03 -2.7430107920080483e-03 0.0000000000000000e+00  -3.2367559136416411e-03 -2.7557223878517472e-03 0.0000000000000000e+00  -2.7957269584825114e-03 -3.1717180930078380e-03 0.0000000000000000e+00  -2.6255086570075321e-03 -3.0203328263970937e-03 0.0000000000000000e+00  -2.7625453710042867e-03 -2.9799286302867132e-03 0.0000000000000000e+00  -2.5113304841100550e-03 -2.5377227960198430e-03 0.0000000000000000e+00  -3.1852401816385542e-03 -2.7092359629836168e-03 0.0000000000000000e+00  -3.2372172502844170e-03 -3.2207128816393589e-03 0.0000000000000000e+00  -2.8053759833277766e-03 -2.6857046740335136e-03 0.0000000000000000e+00  -2.8786071638789582e-03 -3.2497034934150580e-03 0.0000000000000000e+00  -3.2088309392794938e-03 -2.9508489371355877e-03 0.0000000000000000e+00  -2.9535592698199512e-03 -3.2707609679794259e-03 0.0000000000000000e+00  -2.9419204628370614e-03 -3.2759636777995949e-03 0.0000000000000000e+00  -2.4958926479151130e-03 -2.5265944795045199e-03 0.0000000000000000e+00  -2.6805042823282370e-03 -3.1859416446181395e-03 0.0000000000000000e+00  -2.4974180054935366e-03 -2.6040099125257997e-03 0.0000000000000000e+00  -2.5335344428548917e-03 -2.7823342422630092e-03 0.0000000000000000e+00  -2.6470549141121248e-03 -3.2431011377130298e-03 0.0000000000000000e+00  -3.1699777015050568e-03 -2.5274937437263908e-03 0.0000000000000000e+00  -2.9013686359429256e-03 -3.2109246038598519e-03 0.0000000000000000e+00  -2.5795025113323033e-03 -2.7577952817708848e-03 0.0000000000000000e+00  -3.0766568494257967e-03 -3.2684864808868405e-03 0.0000000000000000e+00  -2.7231480339848847e-03 -2.9739020909303562e-03 0.0000000000000000e+00  -2.7303447089250922e-03 -3.1425442469538451e-03 0.0000000000000000e+00  -2.5668393186377919e-03 -3.0481819979614098e-03 0.0000000000000000e+00  -2.6834916600878144e-03 -2.5281479725534919e-03 0.0000000000000000e+00  -2.5103397715624497e-03 -3.0497472316978361e-03 0.0000000000000000e+00  -2.5280822611070202e-03 -2.7081528105886966e-03 0.0000000000000000e+00  -3.1782612403937149e-03 -2.8426436554082534e-03 0.0000000000000000e+00  -3.0727057306833574e-03 -2.5866649977981690e-03 0.0000000000000000e+00  -2.9604455034793102e-03 -2.6054234089647752e-03 0.0000000000000000e+00  -3.0536088477894447e-03 -3.2766464909170863e-03 0.0000000000000000e+00  -2.8813108622269814e-03 -3.2730700903799257e-03 0.0000000000000000e+00  -2.7419851623690325e-03 -2.5286322003399836e-03 0.0000000000000000e+00  -2.5591211920745162e