<?xml version="1.0"?>
<VTKFile type="UnstructuredGrid"  version="0.1"  >
<UnstructuredGrid>
<Piece  NumberOfPoints="1380" NumberOfCells="2630">
<Points>
<DataArray  type="Float64"  NumberOfComponents="3"  format="ascii">-1 -1 0  1 -1 0  1 1 0  -1 1 0  0 -1 0  1 0 0  0 1 0  -1 0 0  0 0 0  -1 -0.5 0  -0.5 -1 0  -0.5 1 0  -1 0.5 0  1 -0.5 0  0.5 -1 0  1 0.5 0  0.5 1 0  0.4166666666666666 -0.4166666666666667 0  -0.4166666666666667 0.4166666666666667 0  -0.25 -0.5 0  0.5 0.25 0  -0.4861111111111112 -0.06944444444444445 0  0.0732758620689655 0.507183908045977 0  -0.625 -0.625 0  0.625 0.625 0  0.7380952380952381 -0.25 0  -0.7099116161616161 0.2105429292929293 0  -0.25 0.7380952380952381 0  0.105392156862745 -0.6348039215686275 0  0.6770833333333334 -0.6770833333333333 0  -0.6770833333333334 0.6770833333333334 0  0.3472222222222222 -0.06944444444444446 0  -0.7264957264957265 -0.3044871794871795 0  0.3141940982507127 0.7297313660835709 0  0.02049587951122483 -0.3227479397556124 0  -0.2690972222222223 0.1475694444444444 0  0.3859500089908372 -0.7274430156831472 0  -0.2228477945123298 -0.1761765495248019 0  0.2182539682539683 0.1884920634920635 0  0.75 0.375 0  -0.145442219440968 -0.7602211097204841 0  0.7088913690476191 0.0427827380952381 0  -0.75 -1 0  -1 -0.75 0  1 0.75 0  0.75 1 0  -0.7439982703698937 -0.04614153195464455 0  -0.4609235096577606 -0.3356498099556895 0  0.4063134471431929 0.4895621842856023 0  0.25 -1 0  -0.25 -1 0  -0.75 1 0  0.75 -1 0  -1 -0.25 0  -1 0.25 0  1 -0.25 0  -0.25 1 0  1 -0.75 0  -1 0.75 0  0.25 1 0  1 0.25 0  -0.4041423272138783 -0.7597141090712928 0  0.06500839607911253 0.7578103030529481 0  -0.1572801182352047 0.3838997021864289 0  -0.6528005242053915 0.4409494757946086 0  -0.4930160984848485 0.1544744318181818 0  -0.4732142857142858 0.7752976190476191 0  0.6398809523809523 -0.4538690476190476 0  0.5166054117396399 -0.2161233620965164 0  -0.002273787244753427 0.2232363985975174 0  0.1500564496765022 -0.1524955293952667 0  0.2016720420046758 -0.4410343282803009 0  -0.08495178036419618 0.6274139771124571 0  -0.8367311471133162 0.3642591720794645 0  -0.8333333333333334 -0.625 0  -0.594323836800685 -0.8231079456002283 0  -0.4466957714776065 -0.5349126855671806 0  0.8125 0.5625 0  0.78125 0.78125 0  0.5091392650016769 0.7947130883338923 0  0.125 -0.8382681931833136 0  -0.8184523809523809 -0.8184523809523809 0  -0.07781530426104531 -0.5819319697006881 0  0.5085055196703295 0.04967610411902112 0  0.2918471072074933 -0.276017202318847 0  0.5120763537765269 -0.5898771553229597 0  0.625 -0.8585349462365591 0  0.8158532234335381 -0.8158532234335381 0  -0.5198088446315396 0.5739411553684605 0  -0.8585349462365591 0.625 0  -0.8150493805516597 0.8156205699829586 0  0.8585349462365591 -0.625 0  -0.2688268348649726 0.5439331383603209 0  0.8242100426758139 -0.4436043596336612 0  0.5833756314287952 0.4479378157143976 0  0.8690476190476191 -0.125 0  -0.125 0.8690476190476191 0  -0.8692745600729823 0.125 0  0.8696725120759167 0.125 0  -0.625 0.8711516477451908 0  0.2339522463269718 0.3879558377955778 0  0.2453709502295031 0.5655822922838026 0  0.1730610651637797 0.02021709580868947 0  0.3245402594056757 -0.5644672020485209 0  -0.7291666666666666 -0.4816595441595442 0  -1 -0.375 0  -0.5811140848639904 -0.2127276307675001 0  0.673332592838314 0.2158348143233718 0  0.375 1 0  -0.5714768890989919 0.2985103444040069 0  -1 -0.125 0  -0.8453692574786325 -0.1875 0  -0.3144549134065865 -0.02408675326008025 0  -0.2898414972096258 -0.3336092734780093 0  -0.1075052092206287 -0.4224330421314983 0  -0.05043970703604117 -0.1652278959397459 0  0.6459672950297897 -0.1113415301525317 0  0.4645210271029513 0.6398480556579343 0  0.3512863754411909 0.0937979496253573 0  -0.6063160985568274 0.03891469652249891 0  -0.3428819444444445 0.8690476190476191 0  0.625 1 0  -0.1602164796159982 0.02697860906625157 0  0.04648110064133829 -0.4808416424239687 0  1 0.875 0  -0.3836102479201657 0.6484936449177356 0  -0.3776011723096096 0.263078478984336 0  -0.6024978259969829 -0.3949628096211138 0  0.125 1 0  0.2010781308272777 0.8456221018461906 0  0.2822509696388829 -0.845902544691141 0  -0.3285533674953515 -0.6289773550938936 0  0.3461306793221754 0.278777492464833 0  0.4737475672408696 -0.8508448959534423 0  0.2384632828836344 -0.7029523187242811 0  -0.004777287059791593 0.3759269695907358 0  -0.8499735021850066 -0.3912320205328522 0  0.1222536293721587 0.2963971539625205 0  -0.3769456520999688 -0.203572526805711 0  -0.2749617205755651 -0.8464290792698902 0  0.004805888512766143 -0.747174355248311 0  -0.125 -1 0  -0.06001061822252458 -0.8724007765244854 0  0.875 0.4375 0  0.854421179608893 0.271342359217786 0  0.875 1 0  -0.1499861095763589 0.2358309656934888 0  0.3381943639137225 0.8663061796405532 0  -0.7853090110442228 0.4998412775277108 0  0.7398165998560814 -0.5535192694951373 0  0.1580042122341573 -0.3100246140259917 0  -0.7291666666666667 -0.7142857142857142 0  -0.375 -1 0  0.6483368386154684 0.8514905990110488 0  -0.1295370103291928 -0.2826118305021242 0  0.07458201853700455 0.1123894386563915 0  0.6146465857036327 -0.3161203659316075 0  0.5551898493894731 -0.740296118159085 0  0.375 -1 0  0.482702798370208 -0.084133350091034 0  0.87890625 0.68359375 0  -0.05917195534525846 0.4971092425697621 0  0.1260710309213975 0.6343750312956699 0  0.8690476190476191 -0.3077066815262848 0  -0.2912010232560567 0.3668168386732139 0  -0.875 1 0  -1 0.875 0  1 -0.875 0  0.875 -1 0  -0.8689564281364567 -0.006189266075306407 0  -0.7449425635110547 0.08458938160051771 0  -0.7150266761936593 -0.1739444581417552 0  -0.5260034831318311 -0.711099823962112 0  -0.4724626808827322 -0.871722230709409 0  0.4734436795977052 0.377714794132168 0  -0.875 -1 0  -1 -0.875 0  0.6927189078571988 0.5156567235715964 0  -0.3742497615796874 -0.4296005251260107 0  -0.1969436423297711 -0.6387157229772615 0  -0.6179496409766825 -0.08933356056510935 0  -0.424405057115988 0.04452428810878029 0  -0.08479048335844169 0.1279607007132633 0  0.003830300099055113 0.8712085230656206 0  0.8748778838820267 -1.379218479898026e-05 0  -0.375 1 0  -0.625 1 0  1 0.125 0  -0.125 1 0  1 -0.375 0  1 -0.125 0  1 -0.625 0  0.625 -1 0  0.125 -1 0  -0.625 -1 0  -1 -0.625 0  -1 0.125 0  -1 0.375 0  -1 0.625 0  1 0.375 0  1 0.625 0  0.6325660748712082 0.3335187599557389 0  -0.06420945895056573 0.7549874027425891 0  -0.8769015540914771 0.2478802253893416 0  0.871875 0.871875 0  -0.6868091492840067 0.3270978624973681 0  -0.5363597469565949 0.412994850055505 0  -0.6803734992638302 0.5574295000651103 0  -0.7076253581162534 -0.8803439094224437 0  -0.8778089002295137 -0.5106896447504627 0  -0.3860184984222981 0.530566778071246 0  0.6109900617121508 0.1128453077697081 0  0.3896945134930274 -0.1915382873255086 0  0.7605656944697778 -0.06822134873122943 0  0.3576151269893478 0.5948388411612135 0  -0.5689902680792265 -0.5143596830118065 0  0.6262446286847614 -0.5735657901943212 0  0.2030558252325225 -0.5625263842513452 0  0.6123273142928579 0.7407533260723429 0  0.4016460890123554 -0.3042863223111857 0  -0.59039693199147 0.7578418819188018 0  0.7276932493917544 -0.3705808024528924 0  0.5222536818742854 -0.4713886230400014 0  -0.5101986527137737 0.8848365765607674 0  0.510560172809238 0.5356013299918891 0  -0.3603569195756083 0.75823710606415 0  0.1967279277813232 0.728226870058472 0  -0.6086880986371127 0.1545624071548516 0  -0.38105366729386 0.1511189987807864 0  -0.2944659463671584 -0.7359061804869591 0  0.5060729154966499 -0.3475227845833823 0  -0.09281616240412746 -0.06197858250969457 0  0.7649739583333334 0.6673177083333334 0  0.7628906249999999 0.890234375 0  -0.2666864184909611 0.2585504071132311 0  0.3635064892129658 0.3878003602709461 0  -0.2339409722222222 0.8901937905844155 0  -0.1718792125974916 -0.8957733325456778 0  0.1001768566329531 0.4023510017391879 0  0.3120260172693757 -0.4540546875576884 0  0.7804062804433681 0.1896628610854537 0  0.4087715451998049 0.187961780041608 0  -0.1584963477271457 0.5451611892421655 0  -0.8926817849258324 0.463022006336401 0  0.2338091473445219 -0.07576267331277289 0  0.08171112182813692 -0.2349087687359925 0  0.04635385178956847 -0.1044635073718474 0  -0.4377391632114205 -0.6448874471423088 0  -0.1907678351227189 0.6480215912813945 0  0.300605946475244 0.4741444604171038 0  -0.2145033720757486 -0.06751709909419711 0  0.6069191921170397 -0.005492331448357812 0  0.0214718770761248 0.6032397936031719 0  0.5476675683364878 0.8992752415326501 0  0.4387475014316537 0.9093708953002239 0  -0.4932997685306436 -0.4381009159993523 0  0.2515197695339056 -0.1791673369138964 0  -0.7291666666666667 -0.6088789682539681 0  -0.9166666666666667 -0.6875 0  0.620579540363709 -0.2122431523583302 0  -0.484950136419973 0.6719440339397442 0  0.2857044415400258 0.0137589173127316 0  -0.8945708364098356 -0.288306105327986 0  0.4043102720140535 0.7842914560451557 0  0.04123256238752064 -0.9026968245801402 0  0.2003676884403109 -0.9091888601740487 0  0.1068775558538842 -0.7373377130403223 0  -0.4804566783514427 -0.1763307203045643 0  0.108286342087769 -0.3993789328997278 0  -0.191883080105361 -0.3640821726430649 0  -0.07025064492006244 0.2984876656890053 0  -0.7039324641409584 0.788312126296613 0  -0.7311286585775438 0.8932502354831682 0  0.5171409396884947 0.1503852691889257 0  0.4229392823658633 -0.003216522184234835 0  -0.5621736087218259 -0.919558629836806 0  -0.626474064879544 -0.7266572613636506 0  0.2446828746617422 0.2867616783302419 0  0.1759429608742923 0.4776611759306416 0  -0.3468240303741654 -0.5260416435617549 0  -0.7465808808425306 0.4069574477998361 0  -0.7819962170660292 0.2802441065650652 0  -0.3742623214119594 -0.8547800509641984 0  0.1014498009713561 0.8506721983266377 0  0.4285217620918213 -0.5230190595570253 0  0.4091738370487775 -0.6256346204225141 0  0.78125 0.46875 0  0.90625 0.53125 0  -0.4791801348852565 0.2553992655702126 0  0.7843318610782772 -0.7086046956885941 0  0.8909728264971901 -0.7355183796514634 0  0.7041908166528879 -0.7830649143180282 0  0.7311821352
[...]
<PointData  Vectors="f_22"> 
<DataArray  type="Float64"  Name="f_22"  NumberOfComponents="3" format="ascii">-2.7869754813288948e-03 -2.8345390673635337e-03 0.0000000000000000e+00  -2.7869754813288948e-03 -2.8345390673635337e-03 0.0000000000000000e+00  -2.7869754813288948e-03 -2.8345390673635337e-03 0.0000000000000000e+00  -2.7869754813288948e-03 -2.8345390673635337e-03 0.0000000000000000e+00  -2.7864862432012967e-03 -2.9698171820967336e-03 0.0000000000000000e+00  -2.9333968357147444e-03 -2.8339359417392075e-03 0.0000000000000000e+00  -2.7864862432012967e-03 -2.9698171820967336e-03 0.0000000000000000e+00  -2.9333968357147444e-03 -2.8339359417392075e-03 0.0000000000000000e+00  -2.9338440032952761e-03 -2.9704317991786060e-03 0.0000000000000000e+00  -1.5102787131788084e-03 -2.8342054518422813e-03 0.0000000000000000e+00  -2.7867278491581094e-03 -1.5524001651343563e-03 0.0000000000000000e+00  -2.7867278491581094e-03 -1.5524001651343563e-03 0.0000000000000000e+00  -4.2101093105082659e-03 -2.8341810050481401e-03 0.0000000000000000e+00  -1.5102787131788084e-03 -2.8342054518422813e-03 0.0000000000000000e+00  -2.7866818275630425e-03 -4.2520369458590125e-03 0.0000000000000000e+00  -4.2101093105082659e-03 -2.8341810050481401e-03 0.0000000000000000e+00  -2.7866818275630425e-03 -4.2520369458590125e-03 0.0000000000000000e+00  -1.5750449980309988e-03 -4.2234205911245402e-03 0.0000000000000000e+00  -4.1828393188999141e-03 -1.6157744715997195e-03 0.0000000000000000e+00  -1.5105095763701974e-03 -1.9959220284412119e-03 0.0000000000000000e+00  -3.8668342832752804e-03 -4.2521820076409211e-03 0.0000000000000000e+00  -2.6398041256485523e-03 -1.5567017559369384e-03 0.0000000000000000e+00  -4.2081366343637112e-03 -3.2764372853926827e-03 0.0000000000000000e+00  -1.5852549204036944e-03 -1.6294211585354905e-03 0.0000000000000000e+00  -4.0794935290387165e-03 -4.1234926939643212e-03 0.0000000000000000e+00  -1.9573407568651119e-03 -3.8451351527645666e-03 0.0000000000000000e+00  -3.7471059144388729e-03 -1.7935252164998211e-03 0.0000000000000000e+00  -3.7994552548346371e-03 -1.9955381756762008e-03 0.0000000000000000e+00  -1.5991863731055242e-03 -3.4050721502689668e-03 0.0000000000000000e+00  -1.6749316194428292e-03 -4.0124291392782101e-03 0.0000000000000000e+00  -3.9675542782734467e-03 -1.7199851173160048e-03 0.0000000000000000e+00  -2.6398181012625560e-03 -4.1309812526973046e-03 0.0000000000000000e+00  -1.7994101595462644e-03 -1.8356316179283364e-03 0.0000000000000000e+00  -3.8250866064618383e-03 -4.0660126329707582e-03 0.0000000000000000e+00  -1.7531245713206982e-03 -3.0570177342862780e-03 0.0000000000000000e+00  -3.5295845855350650e-03 -1.9374103815409430e-03 0.0000000000000000e+00  -1.7920608881555132e-03 -4.1899165006809300e-03 0.0000000000000000e+00  -2.2133318506058217e-03 -2.0847519065366029e-03 0.0000000000000000e+00  -3.6748440588988220e-03 -3.8097569580588515e-03 0.0000000000000000e+00  -4.1355811991124229e-03 -3.8087125102588921e-03 0.0000000000000000e+00  -1.8832046513306976e-03 -2.3675716964919277e-03 0.0000000000000000e+00  -3.1137466468958209e-03 -3.9299825685123867e-03 0.0000000000000000e+00  -2.7868735427336285e-03 -1.8999623699072956e-03 0.0000000000000000e+00  -1.8539450918363285e-03 -2.8344346853193055e-03 0.0000000000000000e+00  -3.7629112128135730e-03 -2.8343964703155490e-03 0.0000000000000000e+00  -2.7868814819610806e-03 -3.8087694512617216e-03 0.0000000000000000e+00  -2.7377236207210319e-03 -1.8826010054947789e-03 0.0000000000000000e+00  -1.7227501445225479e-03 -1.5710913301325139e-03 0.0000000000000000e+00  -4.2120515506276117e-03 -4.2139225793339941e-03 0.0000000000000000e+00  -2.7865425028217772e-03 -3.9045331057768833e-03 0.0000000000000000e+00  -2.7865447209080739e-03 -1.9955951391906453e-03 0.0000000000000000e+00  -2.7868735427336285e-03 -1.8999623699072956e-03 0.0000000000000000e+00  -2.7868814819610806e-03 -3.8087694512617216e-03 0.0000000000000000e+00  -1.9573997642346780e-03 -2.8340298627672839e-03 0.0000000000000000e+00  -3.8664770114912395e-03 -2.8340066867887921e-03 0.0000000000000000e+00  -1.9573997642346780e-03 -2.8340298627672839e-03 0.0000000000000000e+00  -2.7865447209080739e-03 -1.9955951391906453e-03 0.0000000000000000e+00  -1.8539450918363285e-03 -2.8344346853193055e-03 0.0000000000000000e+00  -3.7629112128135730e-03 -2.8343964703155490e-03 0.0000000000000000e+00  -2.7865425028217772e-03 -3.9045331057768833e-03 0.0000000000000000e+00  -3.8664770114912395e-03 -2.8340066867887921e-03 0.0000000000000000e+00  -1.8819443429156312e-03 -1.6333788137019262e-03 0.0000000000000000e+00  -3.7376381453380634e-03 -3.2423375364055650e-03 0.0000000000000000e+00  -4.1474417242607494e-03 -2.3218895364453883e-03 0.0000000000000000e+00  -4.2002140160642106e-03 -1.6733278744580082e-03 0.0000000000000000e+00  -3.5547614386486760e-03 -1.5541013467297784e-03 0.0000000000000000e+00  -3.6797274035465454e-03 -1.5627232917802094e-03 0.0000000000000000e+00  -1.5347638145668781e-03 -4.0945560444856557e-03 0.0000000000000000e+00  -2.0694606557067619e-03 -4.2464605214392430e-03 0.0000000000000000e+00  -3.7874806901527940e-03 -2.9607684355415164e-03 0.0000000000000000e+00  -2.3032507687448384e-03 -3.5759651413860799e-03 0.0000000000000000e+00  -1.5467752011357561e-03 -3.7560445447160579e-03 0.0000000000000000e+00  -4.0745497527596109e-03 -2.6115989058308003e-03 0.0000000000000000e+00  -4.1193778515862291e-03 -2.1803321634183796e-03 0.0000000000000000e+00  -1.5851738152447999e-03 -2.1687037170436334e-03 0.0000000000000000e+00  -2.0858968308274583e-03 -1.5916111638739061e-03 0.0000000000000000e+00  -1.5106608958267462e-03 -1.5828366585641442e-03 0.0000000000000000e+00  -4.1700352666739285e-03 -3.5957199144794282e-03 0.0000000000000000e+00  -3.6600023252036438e-03 -3.7061859016979449e-03 0.0000000000000000e+00  -3.6131356086233557e-03 -4.2496619932336326e-03 0.0000000000000000e+00  -2.1390180197754841e-03 -3.4812898532985627e-03 0.0000000000000000e+00  -2.0697977303097939e-03 -2.1165526496912629e-03 0.0000000000000000e+00  -1.5360900711673569e-03 -2.6414268133419880e-03 0.0000000000000000e+00  -3.1426446293359362e-03 -4.2497424918201956e-03 0.0000000000000000e+00  -1.8783664305423078e-03 -4.0148732478780726e-03 0.0000000000000000e+00  -1.5429914384183742e-03 -4.2482282055914394e-03 0.0000000000000000e+00  -2.2134640459752072e-03 -4.1232392721677197e-03 0.0000000000000000e+00  -2.0606887844801221e-03 -3.5834278590577461e-03 0.0000000000000000e+00  -4.1565953633788668e-03 -1.5505663263020890e-03 0.0000000000000000e+00  -4.0791806815378496e-03 -2.2605021653538475e-03 0.0000000000000000e+00  -3.5376471037128522e-03 -2.1046818981144593e-03 0.0000000000000000e+00  -1.5849165874556746e-03 -3.4211102570680897e-03 0.0000000000000000e+00  -4.1868753107280037e-03 -1.9379570579421673e-03 0.0000000000000000e+00  -1.5441706060262553e-03 -3.5522109656661157e-03 0.0000000000000000e+00  -4.2043035237811057e-03 -4.1885681573707086e-03 0.0000000000000000e+00  -2.4111797327823559e-03 -3.3793544830249705e-03 0.0000000000000000e+00  -3.3323684251411628e-03 -2.4481299838077374e-03 0.0000000000000000e+00  -3.4443729421990616e-03 -2.3006781202499259e-03 0.0000000000000000e+00  -3.4444579131566451e-03 -3.3769509920090653e-03 0.0000000000000000e+00  -3.3242061356343377e-03 -1.6291870375761556e-03 0.0000000000000000e+00  -4.1528908188572626e-03 -3.8579928196621890e-03 0.0000000000000000e+00  -4.1666680783646907e-03 -3.8915931475672788e-03 0.0000000000000000e+00  -3.0194072288311055e-03 -3.6589165883524652e-03 0.0000000000000000e+00  -1.5228298943864181e-03 -4.0874791736802574e-03 0.0000000000000000e+00  -1.5169754723121621e-03 -1.8427681096928321e-03 0.0000000000000000e+00  -1.6410408120689981e-03 -2.8340957602637877e-03 0.0000000000000000e+00  -2.0814780890837481e-03 -1.5789437491981234e-03 0.0000000000000000e+00  -3.7642358065514223e-03 -4.0215703453879348e-03 0.0000000000000000e+00  -2.7866071991116490e-03 -4.1751893282656110e-03 0.0000000000000000e+00  -3.9917734069426650e-03 -1.5709145372048068e-03 0.0000000000000000e+00  -2.4112183175150508e-03 -2.8339270623660815e-03 0.0000000000000000e+00  -2.1711559980094526e-03 -2.2117101162202209e-03 0.0000000000000000e+00  -2.8315600394980306e-03 -1.8128864262519522e-03 0.0000000000000000e+00  -1.7274976827439264e-03 -1.8780278024712147e-03 0.0000000000000000e+00  -1.5680391281389532e-03 -2.5192317503537768e-03 0.0000000000000000e+00  -2.2545422597679771e-03 -2.7565517391762461e-03 0.0000000000000000e+00  -2.4663772693467776e-03 -4.0822288512527239e-03 0.0000000000000000e+00  -4.0508723481544502e-03 -4.2513982866217419e-03 0.0000000000000000e+00  -3.3227195657321621e-03 -4.1381729890606483e-03 0.0000000000000000e+00  -3.0976387852590741e-03 -1.6045768530884867e-03 0.0000000000000000e+00  -3.3323946873828028e-03 -1.7455056672402295e-03 0.0000000000000000e+00  -2.7867563158751863e-03 -4.1233689741101455e-03 0.0000000000000000e+00  -3.0478475790979551e-03 -2.3108985397737084e-03 0.0000000000000000e+00  -1.5171263925388358e-03 -3.1658545415000775e-03 0.0000000000000000e+00  -3.3090921394103453e-03 -2.8344488185157294e-03 0.0000000000000000e+00  -4.0324545492750521e-03 -1.6656937369606095e-03 0.0000000000000000e+00  -3.9027242895620217e-03 -1.6763670681570002e-03 0.0000000000000000e+00  -1.6071553344591753e-03 -1.6004654604121124e-03 0.0000000000000000e+00  -2.7865068044342625e-03 -3.4812447149573426e-03 0.0000000000000000e+00  -3.4244190379638783e-03 -3.7539665324967547e-03 0.0000000000000000e+00  -2.1666823571957370e-03 -3.9910344800142151e-03 0.0000000000000000e+00  -1.5908558155138626e-03 -1.7784505793901305e-03 0.0000000000000000e+00  -3.9443023858834443e-03 -4.1291972767259029e-03 0.0000000000000000e+00  -2.1848365366221000e-03 -4.2529117314358770e-03 0.0000000000000000e+00  -1.7315002634552741e-03 -3.8709786982325193e-03 0.0000000000000000e+00  -4.1368281330647731e-03 -2.9500188406349939e-03 0.0000000000000000e+00  -1.6129852038657387e-03 -2.2288123729772608e-03 0.0000000000000000e+00  -3.9872911697727744e-03 -3.4712654663166960e-03 0.0000000000000000e+00  -2.1137068193360573e-03 -1.6778332388709166e-03 0.0000000000000000e+00  -2.1688377541274817e-03 -1.9199552169503766e-03 0.0000000000000000e+00  -1.8456034014841113e-03 -2.9902980365766711e-03 0.0000000000000000e+00  -2.7864903246534976e-03 -2.4481605568582149e-03 0.0000000000000000e+00  -2.2656151155486552e-03 -2.7156914394986997e-03 0.0000000000000000e+00  -4.1985624992958194e-03 -3.3559930811413868e-03 0.0000000000000000e+00  -3.9248025937648860e-03 -3.4371546588833372e-03 0.0000000000000000e+00  -2.7869207352659302e-03 -3.3561736628736180e-03 0.0000000000000000e+00  -3.8255604277012412e-03 -2.3501390676586554e-03 0.0000000000000000e+00  -3.3435671089198180e-03 -4.1144013344375438e-03 0.0000000000000000e+00  -4.2099475162716143e-03 -2.0060195070842469e-03 0.0000000000000000e+00  -1.5168465609148945e-03 -3.8400024081168870e-03 0.0000000000000000e+00  -1.7849628284451373e-03 -3.6049180732282997e-03 0.0000000000000000e+00  -1.7593172553328413e-03 -1.8428710921766615e-03 0.0000000000000000e+00  -2.7866292877892934e-03 -1.6810461584647824e-03 0.0000000000000000e+00  -3.4019355394040948e-03 -4.0777409276187698e-03 0.0000000000000000e+00  -1.8595924910645254e-03 -2.4305906888728492e-03 0.0000000000000000e+00  -3.3961339236400511e-03 -3.2819645481371026e-03 0.0000000000000000e+00  -1.7691975511381893e-03 -4.1411653321548900e-03 0.0000000000000000e+00  -1.8264712107453451e-03 -4.2199110183231683e-03 0.0000000000000000e+00  -2.7866071991116490e-03 -4.1751893282656110e-03 0.0000000000000000e+00  -2.5783506598685457e-03 -4.2536692484499471e-03 0.0000000000000000e+00  -3.9518380751342990e-03 -3.3404904624998277e-03 0.0000000000000000e+00  -4.2106307076012596e-03 -2.7194906243890090e-03 0.0000000000000000e+00  -4.0614656063717152e-03 -3.4856347710715686e-03 0.0000000000000000e+00  -1.7906865834001924e-03 -3.3793658068506324e-03 0.0000000000000000e+00  -4.1233461522379991e-03 -1.8738884871270683e-03 0.0000000000000000e+00  -2.7869538627304392e-03 -2.3231870493732988e-03 0.0000000000000000e+00  -3.3090921394103453e-03 -2.8344488185157294e-03 0.0000000000000000e+00  -2.2759987377452282e-03 -2.8345162841112276e-03 0.0000000000000000e+00  -2.7869207352659302e-03 -3.3561736628736180e-03 0.0000000000000000e+00  -2.9071655955353634e-03 -2.2995396752893776e-03 0.0000000000000000e+00  -3.2854119248712228e-03 -1.8851747821396140e-03 0.0000000000000000e+00  -2.2214065062244560e-03 -1.8063287902130090e-03 0.0000000000000000e+00  -1.7514657234003852e-03 -1.5515724885999396e-03 0.0000000000000000e+00  -2.2634137789181311e-03 -1.5633923902636123e-03 0.0000000000000000e+00  -4.1394995406481058e-03 -4.2532160683039647e-03 0.0000000000000000e+00  -2.7869538627304392e-03 -2.3231870493732988e-03 0.0000000000000000e+00  -2.2759987377452282e-03 -2.8345162841112276e-03 0.0000000000000000e+00  -4.2050977225040476e-03 -3.9735950944458365e-03 0.0000000000000000e+00  -1.5595568351034869e-03 -1.6827301340326681e-03 0.0000000000000000e+00  -1.6055414848329651e-03 -2.1747002007060350e-03 0.0000000000000000e+00  -2.5568596755180667e-03 -1.6193665943407827e-03 0.0000000000000000e+00  -3.1211625611670918e-03 -1.6063006829164172e-03 0.0000000000000000e+00  -3.4561818607709398e-03 -2.6126937316621967e-03 0.0000000000000000e+00  -3.3237516641509575e-03 -2.9861101277880659e-03 0.0000000000000000e+00  -2.9333424997783140e-03 -3.3561435449251617e-03 0.0000000000000000e+00  -2.7866292877892934e-03 -1.6810461584647824e-03 0.0000000000000000e+00  -2.7867772832445119e-03 -1.6292833793388989e-03 0.0000000000000000e+00  -3.4443761224518961e-03 -2.8339678048235548e-03 0.0000000000000000e+00  -2.7864903246534976e-03 -2.4481605568582149e-03 0.0000000000000000e+00  -1.6410408120689981e-03 -2.8340957602637877e-03 0.0000000000000000e+00  -2.4112183175150508e-03 -2.8339270623660815e-03 0.0000000000000000e+00  -1.5850519415471537e-03 -2.8342922406128282e-03 0.0000000000000000e+00  -2.7867563158751863e-03 -4.1233689741101455e-03 0.0000000000000000e+00  -2.7865068044342625e-03 -3.4812447149573426e-03 0.0000000000000000e+00  -2.7867772832445119e-03 -1.6292833793388989e-03 0.0000000000000000e+00  -1.5850519415471537e-03 -2.8342922406128282e-03 0.0000000000000000e+00  -3.4443761224518961e-03 -2.8339678048235548e-03 0.0000000000000000e+00  -4.1353761931139463e-03 -2.8340993036632622e-03 0.0000000000000000e+00  -4.0793203755451375e-03 -2.8343189644949927e-03 0.0000000000000000e+00  -4.1353761931139463e-03 -2.8340993036632622e-03 0.0000000000000000e+00  -4.0793203755451375e-03 -2.8343189644949927e-03 0.0000000000000000e+00  -4.0665288164912460e-03 -4.1092731052184937e-03 0.0000000000000000e+00  -3.7466446253465479e-03 -2.6980893937678576e-03 0.0000000000000000e+00  -3.8604218625981142e-03 -2.3298840998999112e-03 0.0000000000000000e+00  -3.3216438970307812e-03 -3.3686405509119176e-03 0.0000000000000000e+00  -4.0535289576053212e-03 -1.7403532580366329e-03 0.0000000000000000e+00  -4.1795277880108906e-03 -1.5532087929629127e-03 0.0000000000000000e+00  -4.1747600602885186e-03 -1.7267303557681026e-03 0.0000000000000000e+00  -2.2965269316399541e-03 -1.7885604749632033e-03 0.0000000000000000e+00  -1.5087016799332168e-03 -2.3337833622216969e-03 0.0000000000000000e+00  -4.1965117474490514e-03 -1.6615965162034693e-03 0.0000000000000000e+00  -3.3977384606326596e-03 -4.1475403784789746e-03 0.0000000000000000e+00  -2.1565109277424405e-03 -4.1948304360701965e-03 0.0000000000000000e+00  -2.6446193414361870e-03 -3.7745284984530320e-03 0.0000000000000000e+00  -4.1292560277798535e-03 -4.1487768696385685e-03 0.0000000000000000e+00  -1.5086511806495272e-03 -1.5696177685852492e-03 0.0000000000000000e+00  -1.5291118434705149e-03 -4.1207459800633823e-03 0.0000000000000000e+00  -1.5216977098831269e-03 -3.7604825768579307e-03 0.0000000000000000e+00  -3.7918483524486185e-03 -4.1455679634184112e-03 0.0000000000000000e+00  -1.7996921462304428e-03 -4.2086372819452531e-03 0.0000000000000000e+00  -3.7374645047104317e-03 -1.5873453944524889e-03 0.0000000000000000e+00  -1.6491042625977961e-03 -3.8762436747415445e-03 0.0000000000000000e+00  -1.5220453816257270e-03 -4.2437163363316403e-03 0.0000000000000000e+00  -3.2691055749081428e-03 -1.5508494744000253e-03 0.0000000000000000e+00  -4.1937334360177322e-03 -4.2492450108236888e-03 0.0000000000000000e+00  -3.7360759782894808e-03 -1.7088584074972369e-03 0.0000000000000000e+00  -3.8294374699051783e-03 -3.7396678816985639e-03 0.0000000000000000e+00  -3.5549853811769009e-03 -1.6073677162282390e-03 0.0000000000000000e+00  -3.5425642756133379e-03 -1.6703407553892819e-03 0.0000000000000000e+00  -1.8148898564740107e-03 -1.8650313980872427e-03 0.0000000000000000e+00  -1.6958277157901960e-03 -4.2502440384307181e-03 0.0000000000000000e+00  -2.6712941983506730e-03 -2.5795223491754280e-03 0.0000000000000000e+00  -3.9912339536237644e-03 -3.7606673806723665e-03 0.0000000000000000e+00  -3.2475705079632032e-03 -3.7674954344898248e-03 0.0000000000000000e+00  -3.8904664645605064e-03 -1.9445222791043641e-03 0.0000000000000000e+00  -4.1527344129187321e-03 -4.1583272536605256e-03 0.0000000000000000e+00  -3.2472098486088802e-03 -2.0472473836962847e-03 0.0000000000000000e+00  -2.3563726350317518e-03 -2.2663088612839442e-03 0.0000000000000000e+00  -4.1693992174149253e-03 -3.3848456181039648e-03 0.0000000000000000e+00  -1.5346777831574377e-03 -4.0611166840157547e-03 0.0000000000000000e+00  -3.6785257344612160e-03 -3.7087186144021435e-03 0.0000000000000000e+00  -3.6730692545977207e-03 -4.2163715518830766e-03 0.0000000000000000e+00  -4.1859368786131912e-03 -2.3171017130738233e-03 0.0000000000000000e+00  -4.2094051347367004e-03 -2.3914006407664665e-03 0.0000000000000000e+00  -2.6134583776418353e-03 -3.8575428023773024e-03 0.0000000000000000e+00  -2.0064265347033003e-03 -3.3108585515149746e-03 0.0000000000000000e+00  -2.4948489221821046e-03 -3.1656004855713225e-03 0.0000000000000000e+00  -1.6157191440534576e-03 -1.5915301519181240e-03 0.0000000000000000e+00  -4.0335250116512629e-03 -2.1967061980366171e-03 0.0000000000000000e+00  -4.2118399604134209e-03 -4.0357918084775284e-03 0.0000000000000000e+00  -2.6480360803811916e-03 -2.1132565718360902e-03 0.0000000000000000e+00  -2.9102608465181559e-03 -4.1540567245295203e-03 0.0000000000000000e+00  -4.1162101665403782e-03 -3.0609356043649286e-03 0.0000000000000000e+00  -3.2105278349462371e-03 -4.2268941170926855e-03 0.0000000000000000e+00  -3.1688656945556034e-03 -4.2401289999617238e-03 0.0000000000000000e+00  -1.5502149907000349e-03 -1.5543687599449531e-03 0.0000000000000000e+00  -2.2020053103323262e-03 -3.9091278442035787e-03 0.0000000000000000e+00  -1.5641432873677232e-03 -1.8428534717055986e-03 0.0000000000000000e+00  -1.6972109458481960e-03 -2.4874579222237147e-03 0.0000000000000000e+00  -2.0827939653611524e-03 -4.1309241154661950e-03 0.0000000000000000e+00  -3.9797892312558409e-03 -1.5569201103519655e-03 0.0000000000000000e+00  -2.9920797197039006e-03 -4.0000828278792767e-03 0.0000000000000000e+00  -1.8431996291699583e-03 -2.3989018553715611e-03 0.0000000000000000e+00  -3.6494624249622173e-03 -4.2116873331386013e-03 0.0000000000000000e+00  -2.3836445653710480e-03 -3.1435978146839975e-03 0.0000000000000000e+00  -2.4095480826631312e-03 -3.7515570363136079e-03 0.0000000000000000e+00  -1.8184062749587269e-03 -3.4108894852430890e-03 0.0000000000000000e+00  -2.2127189491306723e-03 -1.5592516083788332e-03 0.0000000000000000e+00  -1.5999820811328040e-03 -3.4166891471339518e-03 0.0000000000000000e+00  -1.6621372719842519e-03 -2.1931071034090371e-03 0.0000000000000000e+00  -3.9920382153518195e-03 -2.6731913258934343e-03 0.0000000000000000e+00  -3.6352776117782541e-03 -1.7795062796999101e-03 0.0000000000000000e+00  -3.2350823867189297e-03 -1.8479233915832027e-03 0.0000000000000000e+00  -3.5400287570966959e-03 -4.2464927302509354e-03 0.0000000000000000e+00  -2.9200422478716276e-03 -4.2290209977736155e-03 0.0000000000000000e+00  -2.4516897438170569e-03 -1.5650005865366484e-03 0.0000000000000000e+00  -1.7906343322861206e