<?xml version="1.0"?>
<VTKFile type="UnstructuredGrid"  version="0.1"  >
<UnstructuredGrid>
<Piece  NumberOfPoints="1380" NumberOfCells="2630">
<Points>
<DataArray  type="Float64"  NumberOfComponents="3"  format="ascii">-1 -1 0  1 -1 0  1 1 0  -1 1 0  0 -1 0  1 0 0  0 1 0  -1 0 0  0 0 0  -1 -0.5 0  -0.5 -1 0  -0.5 1 0  -1 0.5 0  1 -0.5 0  0.5 -1 0  1 0.5 0  0.5 1 0  0.4166666666666666 -0.4166666666666667 0  -0.4166666666666667 0.4166666666666667 0  -0.25 -0.5 0  0.5 0.25 0  -0.4861111111111112 -0.06944444444444445 0  0.0732758620689655 0.507183908045977 0  -0.625 -0.625 0  0.625 0.625 0  0.7380952380952381 -0.25 0  -0.7099116161616161 0.2105429292929293 0  -0.25 0.7380952380952381 0  0.105392156862745 -0.6348039215686275 0  0.6770833333333334 -0.6770833333333333 0  -0.6770833333333334 0.6770833333333334 0  0.3472222222222222 -0.06944444444444446 0  -0.7264957264957265 -0.3044871794871795 0  0.3141940982507127 0.7297313660835709 0  0.02049587951122483 -0.3227479397556124 0  -0.2690972222222223 0.1475694444444444 0  0.3859500089908372 -0.7274430156831472 0  -0.2228477945123298 -0.1761765495248019 0  0.2182539682539683 0.1884920634920635 0  0.75 0.375 0  -0.145442219440968 -0.7602211097204841 0  0.7088913690476191 0.0427827380952381 0  -0.75 -1 0  -1 -0.75 0  1 0.75 0  0.75 1 0  -0.7439982703698937 -0.04614153195464455 0  -0.4609235096577606 -0.3356498099556895 0  0.4063134471431929 0.4895621842856023 0  0.25 -1 0  -0.25 -1 0  -0.75 1 0  0.75 -1 0  -1 -0.25 0  -1 0.25 0  1 -0.25 0  -0.25 1 0  1 -0.75 0  -1 0.75 0  0.25 1 0  1 0.25 0  -0.4041423272138783 -0.7597141090712928 0  0.06500839607911253 0.7578103030529481 0  -0.1572801182352047 0.3838997021864289 0  -0.6528005242053915 0.4409494757946086 0  -0.4930160984848485 0.1544744318181818 0  -0.4732142857142858 0.7752976190476191 0  0.6398809523809523 -0.4538690476190476 0  0.5166054117396399 -0.2161233620965164 0  -0.002273787244753427 0.2232363985975174 0  0.1500564496765022 -0.1524955293952667 0  0.2016720420046758 -0.4410343282803009 0  -0.08495178036419618 0.6274139771124571 0  -0.8367311471133162 0.3642591720794645 0  -0.8333333333333334 -0.625 0  -0.594323836800685 -0.8231079456002283 0  -0.4466957714776065 -0.5349126855671806 0  0.8125 0.5625 0  0.78125 0.78125 0  0.5091392650016769 0.7947130883338923 0  0.125 -0.8382681931833136 0  -0.8184523809523809 -0.8184523809523809 0  -0.07781530426104531 -0.5819319697006881 0  0.5085055196703295 0.04967610411902112 0  0.2918471072074933 -0.276017202318847 0  0.5120763537765269 -0.5898771553229597 0  0.625 -0.8585349462365591 0  0.8158532234335381 -0.8158532234335381 0  -0.5198088446315396 0.5739411553684605 0  -0.8585349462365591 0.625 0  -0.8150493805516597 0.8156205699829586 0  0.8585349462365591 -0.625 0  -0.2688268348649726 0.5439331383603209 0  0.8242100426758139 -0.4436043596336612 0  0.5833756314287952 0.4479378157143976 0  0.8690476190476191 -0.125 0  -0.125 0.8690476190476191 0  -0.8692745600729823 0.125 0  0.8696725120759167 0.125 0  -0.625 0.8711516477451908 0  0.2339522463269718 0.3879558377955778 0  0.2453709502295031 0.5655822922838026 0  0.1730610651637797 0.02021709580868947 0  0.3245402594056757 -0.5644672020485209 0  -0.7291666666666666 -0.4816595441595442 0  -1 -0.375 0  -0.5811140848639904 -0.2127276307675001 0  0.673332592838314 0.2158348143233718 0  0.375 1 0  -0.5714768890989919 0.2985103444040069 0  -1 -0.125 0  -0.8453692574786325 -0.1875 0  -0.3144549134065865 -0.02408675326008025 0  -0.2898414972096258 -0.3336092734780093 0  -0.1075052092206287 -0.4224330421314983 0  -0.05043970703604117 -0.1652278959397459 0  0.6459672950297897 -0.1113415301525317 0  0.4645210271029513 0.6398480556579343 0  0.3512863754411909 0.0937979496253573 0  -0.6063160985568274 0.03891469652249891 0  -0.3428819444444445 0.8690476190476191 0  0.625 1 0  -0.1602164796159982 0.02697860906625157 0  0.04648110064133829 -0.4808416424239687 0  1 0.875 0  -0.3836102479201657 0.6484936449177356 0  -0.3776011723096096 0.263078478984336 0  -0.6024978259969829 -0.3949628096211138 0  0.125 1 0  0.2010781308272777 0.8456221018461906 0  0.2822509696388829 -0.845902544691141 0  -0.3285533674953515 -0.6289773550938936 0  0.3461306793221754 0.278777492464833 0  0.4737475672408696 -0.8508448959534423 0  0.2384632828836344 -0.7029523187242811 0  -0.004777287059791593 0.3759269695907358 0  -0.8499735021850066 -0.3912320205328522 0  0.1222536293721587 0.2963971539625205 0  -0.3769456520999688 -0.203572526805711 0  -0.2749617205755651 -0.8464290792698902 0  0.004805888512766143 -0.747174355248311 0  -0.125 -1 0  -0.06001061822252458 -0.8724007765244854 0  0.875 0.4375 0  0.854421179608893 0.271342359217786 0  0.875 1 0  -0.1499861095763589 0.2358309656934888 0  0.3381943639137225 0.8663061796405532 0  -0.7853090110442228 0.4998412775277108 0  0.7398165998560814 -0.5535192694951373 0  0.1580042122341573 -0.3100246140259917 0  -0.7291666666666667 -0.7142857142857142 0  -0.375 -1 0  0.6483368386154684 0.8514905990110488 0  -0.1295370103291928 -0.2826118305021242 0  0.07458201853700455 0.1123894386563915 0  0.6146465857036327 -0.3161203659316075 0  0.5551898493894731 -0.740296118159085 0  0.375 -1 0  0.482702798370208 -0.084133350091034 0  0.87890625 0.68359375 0  -0.05917195534525846 0.4971092425697621 0  0.1260710309213975 0.6343750312956699 0  0.8690476190476191 -0.3077066815262848 0  -0.2912010232560567 0.3668168386732139 0  -0.875 1 0  -1 0.875 0  1 -0.875 0  0.875 -1 0  -0.8689564281364567 -0.006189266075306407 0  -0.7449425635110547 0.08458938160051771 0  -0.7150266761936593 -0.1739444581417552 0  -0.5260034831318311 -0.711099823962112 0  -0.4724626808827322 -0.871722230709409 0  0.4734436795977052 0.377714794132168 0  -0.875 -1 0  -1 -0.875 0  0.6927189078571988 0.5156567235715964 0  -0.3742497615796874 -0.4296005251260107 0  -0.1969436423297711 -0.6387157229772615 0  -0.6179496409766825 -0.08933356056510935 0  -0.424405057115988 0.04452428810878029 0  -0.08479048335844169 0.1279607007132633 0  0.003830300099055113 0.8712085230656206 0  0.8748778838820267 -1.379218479898026e-05 0  -0.375 1 0  -0.625 1 0  1 0.125 0  -0.125 1 0  1 -0.375 0  1 -0.125 0  1 -0.625 0  0.625 -1 0  0.125 -1 0  -0.625 -1 0  -1 -0.625 0  -1 0.125 0  -1 0.375 0  -1 0.625 0  1 0.375 0  1 0.625 0  0.6325660748712082 0.3335187599557389 0  -0.06420945895056573 0.7549874027425891 0  -0.8769015540914771 0.2478802253893416 0  0.871875 0.871875 0  -0.6868091492840067 0.3270978624973681 0  -0.5363597469565949 0.412994850055505 0  -0.6803734992638302 0.5574295000651103 0  -0.7076253581162534 -0.8803439094224437 0  -0.8778089002295137 -0.5106896447504627 0  -0.3860184984222981 0.530566778071246 0  0.6109900617121508 0.1128453077697081 0  0.3896945134930274 -0.1915382873255086 0  0.7605656944697778 -0.06822134873122943 0  0.3576151269893478 0.5948388411612135 0  -0.5689902680792265 -0.5143596830118065 0  0.6262446286847614 -0.5735657901943212 0  0.2030558252325225 -0.5625263842513452 0  0.6123273142928579 0.7407533260723429 0  0.4016460890123554 -0.3042863223111857 0  -0.59039693199147 0.7578418819188018 0  0.7276932493917544 -0.3705808024528924 0  0.5222536818742854 -0.4713886230400014 0  -0.5101986527137737 0.8848365765607674 0  0.510560172809238 0.5356013299918891 0  -0.3603569195756083 0.75823710606415 0  0.1967279277813232 0.728226870058472 0  -0.6086880986371127 0.1545624071548516 0  -0.38105366729386 0.1511189987807864 0  -0.2944659463671584 -0.7359061804869591 0  0.5060729154966499 -0.3475227845833823 0  -0.09281616240412746 -0.06197858250969457 0  0.7649739583333334 0.6673177083333334 0  0.7628906249999999 0.890234375 0  -0.2666864184909611 0.2585504071132311 0  0.3635064892129658 0.3878003602709461 0  -0.2339409722222222 0.8901937905844155 0  -0.1718792125974916 -0.8957733325456778 0  0.1001768566329531 0.4023510017391879 0  0.3120260172693757 -0.4540546875576884 0  0.7804062804433681 0.1896628610854537 0  0.4087715451998049 0.187961780041608 0  -0.1584963477271457 0.5451611892421655 0  -0.8926817849258324 0.463022006336401 0  0.2338091473445219 -0.07576267331277289 0  0.08171112182813692 -0.2349087687359925 0  0.04635385178956847 -0.1044635073718474 0  -0.4377391632114205 -0.6448874471423088 0  -0.1907678351227189 0.6480215912813945 0  0.300605946475244 0.4741444604171038 0  -0.2145033720757486 -0.06751709909419711 0  0.6069191921170397 -0.005492331448357812 0  0.0214718770761248 0.6032397936031719 0  0.5476675683364878 0.8992752415326501 0  0.4387475014316537 0.9093708953002239 0  -0.4932997685306436 -0.4381009159993523 0  0.2515197695339056 -0.1791673369138964 0  -0.7291666666666667 -0.6088789682539681 0  -0.9166666666666667 -0.6875 0  0.620579540363709 -0.2122431523583302 0  -0.484950136419973 0.6719440339397442 0  0.2857044415400258 0.0137589173127316 0  -0.8945708364098356 -0.288306105327986 0  0.4043102720140535 0.7842914560451557 0  0.04123256238752064 -0.9026968245801402 0  0.2003676884403109 -0.9091888601740487 0  0.1068775558538842 -0.7373377130403223 0  -0.4804566783514427 -0.1763307203045643 0  0.108286342087769 -0.3993789328997278 0  -0.191883080105361 -0.3640821726430649 0  -0.07025064492006244 0.2984876656890053 0  -0.7039324641409584 0.788312126296613 0  -0.7311286585775438 0.8932502354831682 0  0.5171409396884947 0.1503852691889257 0  0.4229392823658633 -0.003216522184234835 0  -0.5621736087218259 -0.919558629836806 0  -0.626474064879544 -0.7266572613636506 0  0.2446828746617422 0.2867616783302419 0  0.1759429608742923 0.4776611759306416 0  -0.3468240303741654 -0.5260416435617549 0  -0.7465808808425306 0.4069574477998361 0  -0.7819962170660292 0.2802441065650652 0  -0.3742623214119594 -0.8547800509641984 0  0.1014498009713561 0.8506721983266377 0  0.4285217620918213 -0.5230190595570253 0  0.4091738370487775 -0.6256346204225141 0  0.78125 0.46875 0  0.90625 0.53125 0  -0.4791801348852565 0.2553992655702126 0  0.7843318610782772 -0.7086046956885941 0  0.8909728264971901 -0.7355183796514634 0  0.7041908166528879 -0.7830649143180282 0  0.7311821352
[...]
<PointData  Vectors="f_22"> 
<DataArray  type="Float64"  Name="f_22"  NumberOfComponents="3" format="ascii">-1.6303852946004005e-02 -1.5049386037538380e-02 0.0000000000000000e+00  -1.6303852946004005e-02 -1.5049386037538380e-02 0.0000000000000000e+00  -1.6303852946004005e-02 -1.5049386037538380e-02 0.0000000000000000e+00  -1.6303852946004005e-02 -1.5049386037538380e-02 0.0000000000000000e+00  -1.6099339510731264e-02 -2.2512745935072902e-02 0.0000000000000000e+00  -2.3403804048413884e-02 -1.4840449181223798e-02 0.0000000000000000e+00  -1.6099339510731264e-02 -2.2512745935072902e-02 0.0000000000000000e+00  -2.3403804048413884e-02 -1.4840449181223798e-02 0.0000000000000000e+00  -2.3612158636414544e-02 -2.2725310924544669e-02 0.0000000000000000e+00  -4.5754746400522957e-04 -1.4931573840365173e-02 0.0000000000000000e+00  -1.6187904170499492e-02 5.6553782726476165e-04 0.0000000000000000e+00  -1.6187904170499492e-02 5.6553782726476165e-04 0.0000000000000000e+00  -3.9261663006296875e-02 -1.4928493866581238e-02 0.0000000000000000e+00  -4.5754746400522957e-04 -1.4931573840365173e-02 0.0000000000000000e+00  -1.6187186399203992e-02 -3.8139292180768093e-02 0.0000000000000000e+00  -3.9261663006296875e-02 -1.4928493866581238e-02 0.0000000000000000e+00  -1.6187186399203992e-02 -3.8139292180768093e-02 0.0000000000000000e+00  -1.9910269841713602e-03 -3.8387716571309176e-02 0.0000000000000000e+00  -3.9461070513090619e-02 -1.0167702652391860e-03 0.0000000000000000e+00  -5.3157718293041863e-04 -7.8859176537436418e-03 0.0000000000000000e+00  -3.6228079796821334e-02 -3.8200384159346720e-02 0.0000000000000000e+00  -1.9261505020060968e-02 3.4927771790927358e-04 0.0000000000000000e+00  -3.9190527329033394e-02 -2.6965879197752323e-02 0.0000000000000000e+00  -6.4982880831519524e-04 4.4763722550073334e-04 0.0000000000000000e+00  -3.6479592070979880e-02 -3.5288151208160451e-02 0.0000000000000000e+00  -8.6328104397697253e-03 -3.0234528178693681e-02 0.0000000000000000e+00  -3.4577101365767721e-02 -1.0318516933328127e-03 0.0000000000000000e+00  -3.1471404540205854e-02 -7.7258862589478323e-03 0.0000000000000000e+00  -5.9742196347515990e-04 -2.8652349603078248e-02 0.0000000000000000e+00  -1.4033461945560162e-03 -3.3117668513259674e-02 0.0000000000000000e+00  -3.4329969335374244e-02 -2.7601050034211137e-04 0.0000000000000000e+00  -1.9264829027224272e-02 -3.7747143155382627e-02 0.0000000000000000e+00  -6.1294453771052167e-03 -1.6617836197746958e-03 0.0000000000000000e+00  -3.2037937344221043e-02 -3.7071420149364917e-02 0.0000000000000000e+00  -5.3696040688922166e-03 -2.3917376709505386e-02 0.0000000000000000e+00  -3.1838527485265021e-02 -6.8908200559393224e-03 0.0000000000000000e+00  -2.6959417586969897e-03 -3.8168935958929298e-02 0.0000000000000000e+00  -1.2867846843064632e-02 -9.3530575567809682e-03 0.0000000000000000e+00  -3.3815135874557735e-02 -3.4103966088802361e-02 0.0000000000000000e+00  -3.9216087320351624e-02 -2.9793339585976970e-02 0.0000000000000000e+00  -3.8927620963340186e-03 -1.3652651874436494e-02 0.0000000000000000e+00  -2.6033154063435669e-02 -3.1720453354887476e-02 0.0000000000000000e+00  -1.6264117844784091e-02 -2.4751778799799061e-03 0.0000000000000000e+00  -3.6424852853756168e-03 -1.5009413008251307e-02 0.0000000000000000e+00  -3.1057284389123824e-02 -1.5007624071226647e-02 0.0000000000000000e+00  -1.6264875689711977e-02 -2.9815528512995553e-02 0.0000000000000000e+00  -2.0616235210417704e-02 -2.1272165376585092e-03 0.0000000000000000e+00  -4.8825549825352284e-03 -1.4547852936175399e-04 0.0000000000000000e+00  -3.9459866627578354e-02 -3.8506121892074002e-02 0.0000000000000000e+00  -1.6122966954122901e-02 -3.5114340128887145e-02 0.0000000000000000e+00  -1.6123719445644918e-02 -7.7331951963826636e-03 0.0000000000000000e+00  -1.6264117844784091e-02 -2.4751778799799061e-03 0.0000000000000000e+00  -1.6264875689711977e-02 -2.9815528512995553e-02 0.0000000000000000e+00  -8.6423680172491649e-03 -1.4866493562244589e-02 0.0000000000000000e+00  -3.6089382853860222e-02 -1.4863562611008310e-02 0.0000000000000000e+00  -8.6423680172491649e-03 -1.4866493562244589e-02 0.0000000000000000e+00  -1.6123719445644918e-02 -7.7331951963826636e-03 0.0000000000000000e+00  -3.6424852853756168e-03 -1.5009413008251307e-02 0.0000000000000000e+00  -3.1057284389123824e-02 -1.5007624071226647e-02 0.0000000000000000e+00  -1.6122966954122901e-02 -3.5114340128887145e-02 0.0000000000000000e+00  -3.6089382853860222e-02 -1.4863562611008310e-02 0.0000000000000000e+00  -3.9633866646855169e-03 -1.4834159878894990e-03 0.0000000000000000e+00  -3.0533434543260275e-02 -2.6412961409244401e-02 0.0000000000000000e+00  -3.9275693251362341e-02 -1.2994321291307778e-02 0.0000000000000000e+00  -3.9506956463842342e-02 2.5631338689970670e-04 0.0000000000000000e+00  -3.2114481111620907e-02 5.1466290288174662e-04 0.0000000000000000e+00  -2.9551037319434811e-02 2.3977148535453123e-04 0.0000000000000000e+00  -1.1023276416252106e-03 -3.4542072773437384e-02 0.0000000000000000e+00  -1.0471324187303978e-02 -3.7836186776903563e-02 0.0000000000000000e+00  -3.5243040348869950e-02 -2.2568077466296854e-02 0.0000000000000000e+00  -1.4222833767204294e-02 -3.1056401654543809e-02 0.0000000000000000e+00  -1.4257352285459133e-03 -3.3309154085308060e-02 0.0000000000000000e+00  -3.6233389817965513e-02 -1.7335991179708420e-02 0.0000000000000000e+00  -3.8959316546580941e-02 -5.8368657528396397e-03 0.0000000000000000e+00  -6.2807532195158439e-04 -5.8840182292517048e-03 0.0000000000000000e+00  -6.6115732368402895e-03 7.5824878128772787e-04 0.0000000000000000e+00  -2.7751753130410902e-04 -4.4294767771581794e-04 0.0000000000000000e+00  -3.8242936974866207e-02 -2.6410182728993412e-02 0.0000000000000000e+00  -2.9436240342707504e-02 -2.8186631490126998e-02 0.0000000000000000e+00  -2.8661956386424048e-02 -3.8077940107995110e-02 0.0000000000000000e+00  -7.1137737654678353e-03 -2.9642781964907983e-02 0.0000000000000000e+00  -6.4268451217139849e-03 -5.2275688278566488e-03 0.0000000000000000e+00  -1.6764070162584086e-04 -1.7830847730180059e-02 0.0000000000000000e+00  -2.6504590002190621e-02 -3.8034565578558263e-02 0.0000000000000000e+00  -7.4235492032938347e-03 -3.6466640196237667e-02 0.0000000000000000e+00  -1.1028100580879367e-04 -3.7874563965869433e-02 0.0000000000000000e+00  -8.1929512499848995e-03 -3.5178035544441051e-02 0.0000000000000000e+00  -6.2298968096573806e-03 -2.6165050657456723e-02 0.0000000000000000e+00  -3.7783233474522365e-02 8.5547858819205052e-04 0.0000000000000000e+00  -3.6367977498812626e-02 -6.9741498781151203e-03 0.0000000000000000e+00  -2.7431451430403996e-02 -4.9959138959532147e-03 0.0000000000000000e+00  -5.3533799548652436e-04 -2.3593199647721465e-02 0.0000000000000000e+00  -3.8480120928648866e-02 -6.8047128894277746e-03 0.0000000000000000e+00  -1.3416916125643479e-03 -2.5561141039434753e-02 0.0000000000000000e+00  -3.9680470587660846e-02 -3.6566878066644333e-02 0.0000000000000000e+00  -1.5705203199884069e-02 -2.2890098682406736e-02 0.0000000000000000e+00  -2.4153957087873625e-02 -1.4821272273643238e-02 0.0000000000000000e+00  -3.0561308654394104e-02 -7.4260472507076706e-03 0.0000000000000000e+00  -3.0585415446448820e-02 -2.2896832935305613e-02 0.0000000000000000e+00  -2.4097451656038899e-02 5.5756626407670019e-04 0.0000000000000000e+00  -3.9412495259153982e-02 -3.4693478101438864e-02 0.0000000000000000e+00  -3.8153749398040379e-02 -3.5072763927927852e-02 0.0000000000000000e+00  -2.4827413298153349e-02 -3.2168409227926756e-02 0.0000000000000000e+00  -2.3904751296256408e-05 -3.7200756603563603e-02 0.0000000000000000e+00  -7.7439478700664353e-04 -1.7953152943262142e-03 0.0000000000000000e+00  -3.2878464343057746e-03 -1.4895107718730712e-02 0.0000000000000000e+00  -1.0745756680741372e-02 8.6092727306120043e-04 0.0000000000000000e+00  -3.4886277399867945e-02 -3.3361246508005690e-02 0.0000000000000000e+00  -1.6151234318464474e-02 -3.8098834317750033e-02 0.0000000000000000e+00  -3.7585829578207226e-02 1.0253551889468047e-03 0.0000000000000000e+00  -1.5705387591980223e-02 -1.4846969204950230e-02 0.0000000000000000e+00  -1.2061598030390268e-02 -6.3149067387589337e-03 0.0000000000000000e+00  -2.2104245153292332e-02 -4.8093162557001530e-03 0.0000000000000000e+00  -4.9712142617952650e-03 -5.9547638829897873e-03 0.0000000000000000e+00  -1.9682954148090978e-03 -1.6055587373108748e-02 0.0000000000000000e+00  -1.3500958228166127e-02 -1.9618491019831884e-02 0.0000000000000000e+00  -1.6582429492549441e-02 -3.4354019603338920e-02 0.0000000000000000e+00  -3.5945157301266566e-02 -3.8521913740941466e-02 0.0000000000000000e+00  -2.9061358562862027e-02 -3.7854785354920137e-02 0.0000000000000000e+00  -2.5821409445567902e-02 7.9687494921664456e-04 0.0000000000000000e+00  -2.4155289271196517e-02 -3.4833841364295070e-03 0.0000000000000000e+00  -1.6226599336089848e-02 -3.5229513956270220e-02 0.0000000000000000e+00  -2.5228229129606979e-02 -1.2902368036746457e-02 0.0000000000000000e+00  -7.0620741939822539e-04 -2.5404395885867383e-02 0.0000000000000000e+00  -2.3989349750571414e-02 -1.5036778421390057e-02 0.0000000000000000e+00  -3.5417843766314128e-02 -2.0008115749076474e-03 0.0000000000000000e+00  -3.6575084331341066e-02 -2.2598160101531969e-03 0.0000000000000000e+00  -2.7681883917630070e-03 6.9530136023689961e-04 0.0000000000000000e+00  -1.6105298748395003e-02 -2.9639906670369667e-02 0.0000000000000000e+00  -2.5631102218256756e-02 -3.3264397396183282e-02 0.0000000000000000e+00  -7.4794744343984251e-03 -3.6126016053179867e-02 0.0000000000000000e+00  -6.5703279920336494e-04 -4.1978400788545206e-03 0.0000000000000000e+00  -3.7191998286700487e-02 -3.7792972358192109e-02 0.0000000000000000e+00  -7.7572739414057653e-03 -3.8337021630272083e-02 0.0000000000000000e+00  -1.9823081615455759e-03 -3.4691851303049491e-02 0.0000000000000000e+00  -3.9227732199258347e-02 -2.2380530499139514e-02 0.0000000000000000e+00  -2.8115171773485351e-03 -6.6053426945729020e-03 0.0000000000000000e+00  -3.7686296998460878e-02 -2.9681607854498315e-02 0.0000000000000000e+00  -1.1298558027273095e-02 -2.3966724502719875e-03 0.0000000000000000e+00  -7.6077886921245433e-03 -6.5323943303114305e-03 0.0000000000000000e+00  -3.3836482391825335e-03 -2.2847928775326265e-02 0.0000000000000000e+00  -1.6105535410419983e-02 -1.4821125694108208e-02 0.0000000000000000e+00  -8.8388594748154085e-03 -1.8837488613068779e-02 0.0000000000000000e+00  -3.9619088098673171e-02 -2.2661212647499821e-02 0.0000000000000000e+00  -3.6842006578155874e-02 -2.3861405919797234e-02 0.0000000000000000e+00  -1.6292767084930326e-02 -2.2726937713808123e-02 0.0000000000000000e+00  -3.5688917223786205e-02 -1.3470208982202815e-02 0.0000000000000000e+00  -2.4426530103425197e-02 -3.7549689736332471e-02 0.0000000000000000e+00  -3.9196066691468086e-02 -3.6171561853425580e-03 0.0000000000000000e+00  -6.2290072217318336e-05 -3.0172893202228938e-02 0.0000000000000000e+00  -5.8841243856843336e-03 -3.1399223833706184e-02 0.0000000000000000e+00  -2.5308146269838652e-03 -1.8256888132592824e-03 0.0000000000000000e+00  -1.6152078699113535e-02 -2.3311269704484948e-03 0.0000000000000000e+00  -2.5395153973582579e-02 -3.4424337826989129e-02 0.0000000000000000e+00  -7.2025233798674974e-03 -1.4742534857304576e-02 0.0000000000000000e+00  -3.0093400652813837e-02 -2.7111141244579209e-02 0.0000000000000000e+00  -5.5199165322132151e-03 -3.5425171499394829e-02 0.0000000000000000e+00  -3.1469057235906086e-03 -3.7114620839350451e-02 0.0000000000000000e+00  -1.6151234318464474e-02 -3.8098834317750033e-02 0.0000000000000000e+00  -1.8311121472616657e-02 -3.8291038243151970e-02 0.0000000000000000e+00  -3.4207074390777636e-02 -2.2480591988199281e-02 0.0000000000000000e+00  -3.9271867814311356e-02 -1.8979434725904545e-02 0.0000000000000000e+00  -3.6056891294322969e-02 -2.9792583203695631e-02 0.0000000000000000e+00  -5.8804092287258304e-03 -2.2889253400436266e-02 0.0000000000000000e+00  -3.9029029627187836e-02 -5.7650007002450088e-03 0.0000000000000000e+00  -1.6292745454853819e-02 -7.9419418847251587e-03 0.0000000000000000e+00  -2.3989349750571414e-02 -1.5036778421390057e-02 0.0000000000000000e+00  -9.1632142203823749e-03 -1.5038261652570224e-02 0.0000000000000000e+00  -1.6292767084930326e-02 -2.2726937713808123e-02 0.0000000000000000e+00  -2.3040601086684015e-02 -7.4288253734943587e-03 0.0000000000000000e+00  -2.8403849997852927e-02 -2.1228964552625737e-03 0.0000000000000000e+00  -1.2883609294860638e-02 -1.2801130513188333e-03 0.0000000000000000e+00  -2.4208583909979503e-03 7.2558536648085266e-04 0.0000000000000000e+00  -8.9315440748261900e-03 1.3189548468896573e-04 0.0000000000000000e+00  -3.9303778616689641e-02 -3.8476486759699606e-02 0.0000000000000000e+00  -1.6292745454853819e-02 -7.9419418847251587e-03 0.0000000000000000e+00  -9.1632142203823749e-03 -1.5038261652570224e-02 0.0000000000000000e+00  -3.9136865585232515e-02 -3.2592899351716144e-02 0.0000000000000000e+00  -1.8316612759685243e-03 -2.5003062435819822e-03 0.0000000000000000e+00  -7.5336144988939497e-04 -1.0705125198388734e-02 0.0000000000000000e+00  -1.7993116040806181e-02 6.4616404537575693e-04 0.0000000000000000e+00  -2.6205275931214442e-02 -8.9719232117108419e-04 0.0000000000000000e+00  -3.0893043314327046e-02 -1.7480100454367414e-02 0.0000000000000000e+00  -2.4041044767253824e-02 -2.2759330435495710e-02 0.0000000000000000e+00  -2.3414295196709456e-02 -2.2553115789597736e-02 0.0000000000000000e+00  -1.6152078699113535e-02 -2.3311269704484948e-03 0.0000000000000000e+00  -1.6226519109234030e-02 5.1449290265217303e-04 0.0000000000000000e+00  -3.0561792305880773e-02 -1.4846126408174587e-02 0.0000000000000000e+00  -1.6105535410419983e-02 -1.4821125694108208e-02 0.0000000000000000e+00  -3.2878464343057746e-03 -1.4895107718730712e-02 0.0000000000000000e+00  -1.5705387591980223e-02 -1.4846969204950230e-02 0.0000000000000000e+00  -5.8398402974281743e-04 -1.4970979973514835e-02 0.0000000000000000e+00  -1.6226599336089848e-02 -3.5229513956270220e-02 0.0000000000000000e+00  -1.6105298748395003e-02 -2.9639906670369667e-02 0.0000000000000000e+00  -1.6226519109234030e-02 5.1449290265217303e-04 0.0000000000000000e+00  -5.8398402974281743e-04 -1.4970979973514835e-02 0.0000000000000000e+00  -3.0561792305880773e-02 -1.4846126408174587e-02 0.0000000000000000e+00  -3.9145183000122423e-02 -1.4892201996295708e-02 0.0000000000000000e+00  -3.6420280660764331e-02 -1.4969281614323909e-02 0.0000000000000000e+00  -3.9145183000122423e-02 -1.4892201996295708e-02 0.0000000000000000e+00  -3.6420280660764331e-02 -1.4969281614323909e-02 0.0000000000000000e+00  -3.8545797954106419e-02 -3.4985552762531284e-02 0.0000000000000000e+00  -3.0644353878096671e-02 -1.8588732824843596e-02 0.0000000000000000e+00  -3.5999991077931309e-02 -7.8170583487632787e-03 0.0000000000000000e+00  -2.4189707467020715e-02 -2.2925287084497894e-02 0.0000000000000000e+00  -3.8268277219835750e-02 -4.3390466514413480e-04 0.0000000000000000e+00  -3.9431884340674170e-02 9.7057505286610721e-04 0.0000000000000000e+00  -3.8202199524489285e-02 -3.1438607498298932e-04 0.0000000000000000e+00  -9.4360678879922017e-03 -1.1807658238703873e-03 0.0000000000000000e+00  -3.8863995753224509e-04 -8.0323812916640973e-03 0.0000000000000000e+00  -3.8712956252003598e-02 -1.9281471894971799e-03 0.0000000000000000e+00  -3.0024645263114842e-02 -3.5657219612333139e-02 0.0000000000000000e+00  -1.1880727580790625e-02 -3.8265879780992627e-02 0.0000000000000000e+00  -1.9220210006511845e-02 -2.9106814292476121e-02 0.0000000000000000e+00  -3.7403453578788146e-02 -3.7960263200971449e-02 0.0000000000000000e+00  -4.1745390486366422e-04 8.3017415250734045e-04 0.0000000000000000e+00  -5.6199760008451614e-05 -3.5045176196495928e-02 0.0000000000000000e+00  -4.2251436373954027e-05 -3.3337321676452918e-02 0.0000000000000000e+00  -3.1549842731283070e-02 -3.5703973950535796e-02 0.0000000000000000e+00  -6.0759373450393998e-03 -3.8330188263082106e-02 0.0000000000000000e+00  -3.0500301441299046e-02 9.0926390451276352e-04 0.0000000000000000e+00  -3.3977352970681915e-03 -3.0746736066060536e-02 0.0000000000000000e+00  -7.7358991623516552e-04 -3.7711391419318417e-02 0.0000000000000000e+00  -2.3234452392860455e-02 7.0845787775111518e-04 0.0000000000000000e+00  -3.8824337870264444e-02 -3.8089988209369444e-02 0.0000000000000000e+00  -3.0439926052416136e-02 -2.8122976437297961e-03 0.0000000000000000e+00  -3.2075712666066090e-02 -3.3115883046076877e-02 0.0000000000000000e+00  -3.2089064628703541e-02 8.0851100802235387e-04 0.0000000000000000e+00  -3.1982207536740796e-02 -2.1720358159341463e-03 0.0000000000000000e+00  -3.1101768952310860e-03 -5.6512260964915583e-03 0.0000000000000000e+00  -4.2533080109963123e-03 -3.7963021727493697e-02 0.0000000000000000e+00  -1.9789626085601579e-02 -1.7000608353336711e-02 0.0000000000000000e+00  -3.4898236244139111e-02 -2.9060143093493539e-02 0.0000000000000000e+00  -2.3062062536006244e-02 -2.9166469520478692e-02 0.0000000000000000e+00  -3.6455328134234598e-02 -6.9814824578318998e-03 0.0000000000000000e+00  -3.9421132450793726e-02 -3.8071803406735077e-02 0.0000000000000000e+00  -2.2864378053369046e-02 -8.5593362373036063e-03 0.0000000000000000e+00  -1.0097205605963017e-02 -1.2051613421258905e-02 0.0000000000000000e+00  -3.9511741990840510e-02 -2.8488037639136814e-02 0.0000000000000000e+00  -1.1195037195037545e-03 -3.6935992727209023e-02 0.0000000000000000e+00  -3.3741057371504041e-02 -2.8113070784353100e-02 0.0000000000000000e+00  -3.3771857196615337e-02 -3.8501716211219603e-02 0.0000000000000000e+00  -3.8482150507152792e-02 -1.2875623160860281e-02 0.0000000000000000e+00  -3.9510753410940326e-02 -8.6894081433860227e-03 0.0000000000000000e+00  -1.8899734716699885e-02 -3.4661492929855438e-02 0.0000000000000000e+00  -9.5681844609981914e-03 -2.7473832215490317e-02 0.0000000000000000e+00  -1.7155448172218733e-02 -2.5483292327937213e-02 0.0000000000000000e+00  -9.1932416446153359e-04 -6.2909043669182626e-04 0.0000000000000000e+00  -3.5459577084266967e-02 -1.0967746286515870e-02 0.0000000000000000e+00  -3.9572494714471343e-02 -3.6792121221214627e-02 0.0000000000000000e+00  -1.9438674341073239e-02 -9.8021664977100374e-03 0.0000000000000000e+00  -2.3152231398213503e-02 -3.5748896649014927e-02 0.0000000000000000e+00  -3.7055916209481822e-02 -2.3903428582481512e-02 0.0000000000000000e+00  -2.2461254090076269e-02 -3.7391937515919155e-02 0.0000000000000000e+00  -2.1805978092569057e-02 -3.8524493446465920e-02 0.0000000000000000e+00  -1.6303582696211272e-03 3.7718846534950663e-04 0.0000000000000000e+00  -1.2629499210689621e-02 -3.5261786444955076e-02 0.0000000000000000e+00  -4.6128214778914955e-04 -1.8186674608640220e-03 0.0000000000000000e+00  -1.7883438650087942e-03 -1.0154797805633409e-02 0.0000000000000000e+00  -1.0660429521587206e-02 -3.5243454047783923e-02 0.0000000000000000e+00  -3.4497631937714483e-02 4.4210598482174871e-04 0.0000000000000000e+00  -2.4418600892231818e-02 -3.6370422623076312e-02 0.0000000000000000e+00  -6.8044751953981152e-03 -8.8370116881807959e-03 0.0000000000000000e+00  -2.9215010994440335e-02 -3.8440066674048812e-02 0.0000000000000000e+00  -1.0428486059181813e-02 -2.4987238426805336e-02 0.0000000000000000e+00  -1.0779539867489661e-02 -3.3190597964290025e-02 0.0000000000000000e+00  -3.0285685004480928e-03 -2.8707961483637110e-02 0.0000000000000000e+00  -1.2821544224994031e-02 2.3173361014993340e-04 0.0000000000000000e+00  -2.5575825445636070e-03 -2.8873083051174767e-02 0.0000000000000000e+00  -3.7981158799303759e-03 -1.1063124604391053e-02 0.0000000000000000e+00  -3.7702606678192550e-02 -1.8347767184591725e-02 0.0000000000000000e+00  -2.8914141754556883e-02 -9.7547746781014889e-04 0.0000000000000000e+00  -2.2796947398267712e-02 -1.8135551640389184e-03 0.0000000000000000e+00  -3.1983443640056529e-02 -3.7936772632881657e-02 0.0000000000000000e+00  -2.3349048560929207e-02 -3.8511033878343023e-02 0.0000000000000000e+00  -1.1517700592781644e-02 8.9429270404301170e-04 0.0000000000000000e+00  -2.8983525496829384e-03 4.3476808220265444e-04 0