<?xml version="1.0"?>
<VTKFile type="UnstructuredGrid"  version="0.1"  >
<UnstructuredGrid>
<Piece  NumberOfPoints="1380" NumberOfCells="2630">
<Points>
<DataArray  type="Float64"  NumberOfComponents="3"  format="ascii">-1 -1 0  1 -1 0  1 1 0  -1 1 0  0 -1 0  1 0 0  0 1 0  -1 0 0  0 0 0  -1 -0.5 0  -0.5 -1 0  -0.5 1 0  -1 0.5 0  1 -0.5 0  0.5 -1 0  1 0.5 0  0.5 1 0  0.4166666666666666 -0.4166666666666667 0  -0.4166666666666667 0.4166666666666667 0  -0.25 -0.5 0  0.5 0.25 0  -0.4861111111111112 -0.06944444444444445 0  0.0732758620689655 0.507183908045977 0  -0.625 -0.625 0  0.625 0.625 0  0.7380952380952381 -0.25 0  -0.7099116161616161 0.2105429292929293 0  -0.25 0.7380952380952381 0  0.105392156862745 -0.6348039215686275 0  0.6770833333333334 -0.6770833333333333 0  -0.6770833333333334 0.6770833333333334 0  0.3472222222222222 -0.06944444444444446 0  -0.7264957264957265 -0.3044871794871795 0  0.3141940982507127 0.7297313660835709 0  0.02049587951122483 -0.3227479397556124 0  -0.2690972222222223 0.1475694444444444 0  0.3859500089908372 -0.7274430156831472 0  -0.2228477945123298 -0.1761765495248019 0  0.2182539682539683 0.1884920634920635 0  0.75 0.375 0  -0.145442219440968 -0.7602211097204841 0  0.7088913690476191 0.0427827380952381 0  -0.75 -1 0  -1 -0.75 0  1 0.75 0  0.75 1 0  -0.7439982703698937 -0.04614153195464455 0  -0.4609235096577606 -0.3356498099556895 0  0.4063134471431929 0.4895621842856023 0  0.25 -1 0  -0.25 -1 0  -0.75 1 0  0.75 -1 0  -1 -0.25 0  -1 0.25 0  1 -0.25 0  -0.25 1 0  1 -0.75 0  -1 0.75 0  0.25 1 0  1 0.25 0  -0.4041423272138783 -0.7597141090712928 0  0.06500839607911253 0.7578103030529481 0  -0.1572801182352047 0.3838997021864289 0  -0.6528005242053915 0.4409494757946086 0  -0.4930160984848485 0.1544744318181818 0  -0.4732142857142858 0.7752976190476191 0  0.6398809523809523 -0.4538690476190476 0  0.5166054117396399 -0.2161233620965164 0  -0.002273787244753427 0.2232363985975174 0  0.1500564496765022 -0.1524955293952667 0  0.2016720420046758 -0.4410343282803009 0  -0.08495178036419618 0.6274139771124571 0  -0.8367311471133162 0.3642591720794645 0  -0.8333333333333334 -0.625 0  -0.594323836800685 -0.8231079456002283 0  -0.4466957714776065 -0.5349126855671806 0  0.8125 0.5625 0  0.78125 0.78125 0  0.5091392650016769 0.7947130883338923 0  0.125 -0.8382681931833136 0  -0.8184523809523809 -0.8184523809523809 0  -0.07781530426104531 -0.5819319697006881 0  0.5085055196703295 0.04967610411902112 0  0.2918471072074933 -0.276017202318847 0  0.5120763537765269 -0.5898771553229597 0  0.625 -0.8585349462365591 0  0.8158532234335381 -0.8158532234335381 0  -0.5198088446315396 0.5739411553684605 0  -0.8585349462365591 0.625 0  -0.8150493805516597 0.8156205699829586 0  0.8585349462365591 -0.625 0  -0.2688268348649726 0.5439331383603209 0  0.8242100426758139 -0.4436043596336612 0  0.5833756314287952 0.4479378157143976 0  0.8690476190476191 -0.125 0  -0.125 0.8690476190476191 0  -0.8692745600729823 0.125 0  0.8696725120759167 0.125 0  -0.625 0.8711516477451908 0  0.2339522463269718 0.3879558377955778 0  0.2453709502295031 0.5655822922838026 0  0.1730610651637797 0.02021709580868947 0  0.3245402594056757 -0.5644672020485209 0  -0.7291666666666666 -0.4816595441595442 0  -1 -0.375 0  -0.5811140848639904 -0.2127276307675001 0  0.673332592838314 0.2158348143233718 0  0.375 1 0  -0.5714768890989919 0.2985103444040069 0  -1 -0.125 0  -0.8453692574786325 -0.1875 0  -0.3144549134065865 -0.02408675326008025 0  -0.2898414972096258 -0.3336092734780093 0  -0.1075052092206287 -0.4224330421314983 0  -0.05043970703604117 -0.1652278959397459 0  0.6459672950297897 -0.1113415301525317 0  0.4645210271029513 0.6398480556579343 0  0.3512863754411909 0.0937979496253573 0  -0.6063160985568274 0.03891469652249891 0  -0.3428819444444445 0.8690476190476191 0  0.625 1 0  -0.1602164796159982 0.02697860906625157 0  0.04648110064133829 -0.4808416424239687 0  1 0.875 0  -0.3836102479201657 0.6484936449177356 0  -0.3776011723096096 0.263078478984336 0  -0.6024978259969829 -0.3949628096211138 0  0.125 1 0  0.2010781308272777 0.8456221018461906 0  0.2822509696388829 -0.845902544691141 0  -0.3285533674953515 -0.6289773550938936 0  0.3461306793221754 0.278777492464833 0  0.4737475672408696 -0.8508448959534423 0  0.2384632828836344 -0.7029523187242811 0  -0.004777287059791593 0.3759269695907358 0  -0.8499735021850066 -0.3912320205328522 0  0.1222536293721587 0.2963971539625205 0  -0.3769456520999688 -0.203572526805711 0  -0.2749617205755651 -0.8464290792698902 0  0.004805888512766143 -0.747174355248311 0  -0.125 -1 0  -0.06001061822252458 -0.8724007765244854 0  0.875 0.4375 0  0.854421179608893 0.271342359217786 0  0.875 1 0  -0.1499861095763589 0.2358309656934888 0  0.3381943639137225 0.8663061796405532 0  -0.7853090110442228 0.4998412775277108 0  0.7398165998560814 -0.5535192694951373 0  0.1580042122341573 -0.3100246140259917 0  -0.7291666666666667 -0.7142857142857142 0  -0.375 -1 0  0.6483368386154684 0.8514905990110488 0  -0.1295370103291928 -0.2826118305021242 0  0.07458201853700455 0.1123894386563915 0  0.6146465857036327 -0.3161203659316075 0  0.5551898493894731 -0.740296118159085 0  0.375 -1 0  0.482702798370208 -0.084133350091034 0  0.87890625 0.68359375 0  -0.05917195534525846 0.4971092425697621 0  0.1260710309213975 0.6343750312956699 0  0.8690476190476191 -0.3077066815262848 0  -0.2912010232560567 0.3668168386732139 0  -0.875 1 0  -1 0.875 0  1 -0.875 0  0.875 -1 0  -0.8689564281364567 -0.006189266075306407 0  -0.7449425635110547 0.08458938160051771 0  -0.7150266761936593 -0.1739444581417552 0  -0.5260034831318311 -0.711099823962112 0  -0.4724626808827322 -0.871722230709409 0  0.4734436795977052 0.377714794132168 0  -0.875 -1 0  -1 -0.875 0  0.6927189078571988 0.5156567235715964 0  -0.3742497615796874 -0.4296005251260107 0  -0.1969436423297711 -0.6387157229772615 0  -0.6179496409766825 -0.08933356056510935 0  -0.424405057115988 0.04452428810878029 0  -0.08479048335844169 0.1279607007132633 0  0.003830300099055113 0.8712085230656206 0  0.8748778838820267 -1.379218479898026e-05 0  -0.375 1 0  -0.625 1 0  1 0.125 0  -0.125 1 0  1 -0.375 0  1 -0.125 0  1 -0.625 0  0.625 -1 0  0.125 -1 0  -0.625 -1 0  -1 -0.625 0  -1 0.125 0  -1 0.375 0  -1 0.625 0  1 0.375 0  1 0.625 0  0.6325660748712082 0.3335187599557389 0  -0.06420945895056573 0.7549874027425891 0  -0.8769015540914771 0.2478802253893416 0  0.871875 0.871875 0  -0.6868091492840067 0.3270978624973681 0  -0.5363597469565949 0.412994850055505 0  -0.6803734992638302 0.5574295000651103 0  -0.7076253581162534 -0.8803439094224437 0  -0.8778089002295137 -0.5106896447504627 0  -0.3860184984222981 0.530566778071246 0  0.6109900617121508 0.1128453077697081 0  0.3896945134930274 -0.1915382873255086 0  0.7605656944697778 -0.06822134873122943 0  0.3576151269893478 0.5948388411612135 0  -0.5689902680792265 -0.5143596830118065 0  0.6262446286847614 -0.5735657901943212 0  0.2030558252325225 -0.5625263842513452 0  0.6123273142928579 0.7407533260723429 0  0.4016460890123554 -0.3042863223111857 0  -0.59039693199147 0.7578418819188018 0  0.7276932493917544 -0.3705808024528924 0  0.5222536818742854 -0.4713886230400014 0  -0.5101986527137737 0.8848365765607674 0  0.510560172809238 0.5356013299918891 0  -0.3603569195756083 0.75823710606415 0  0.1967279277813232 0.728226870058472 0  -0.6086880986371127 0.1545624071548516 0  -0.38105366729386 0.1511189987807864 0  -0.2944659463671584 -0.7359061804869591 0  0.5060729154966499 -0.3475227845833823 0  -0.09281616240412746 -0.06197858250969457 0  0.7649739583333334 0.6673177083333334 0  0.7628906249999999 0.890234375 0  -0.2666864184909611 0.2585504071132311 0  0.3635064892129658 0.3878003602709461 0  -0.2339409722222222 0.8901937905844155 0  -0.1718792125974916 -0.8957733325456778 0  0.1001768566329531 0.4023510017391879 0  0.3120260172693757 -0.4540546875576884 0  0.7804062804433681 0.1896628610854537 0  0.4087715451998049 0.187961780041608 0  -0.1584963477271457 0.5451611892421655 0  -0.8926817849258324 0.463022006336401 0  0.2338091473445219 -0.07576267331277289 0  0.08171112182813692 -0.2349087687359925 0  0.04635385178956847 -0.1044635073718474 0  -0.4377391632114205 -0.6448874471423088 0  -0.1907678351227189 0.6480215912813945 0  0.300605946475244 0.4741444604171038 0  -0.2145033720757486 -0.06751709909419711 0  0.6069191921170397 -0.005492331448357812 0  0.0214718770761248 0.6032397936031719 0  0.5476675683364878 0.8992752415326501 0  0.4387475014316537 0.9093708953002239 0  -0.4932997685306436 -0.4381009159993523 0  0.2515197695339056 -0.1791673369138964 0  -0.7291666666666667 -0.6088789682539681 0  -0.9166666666666667 -0.6875 0  0.620579540363709 -0.2122431523583302 0  -0.484950136419973 0.6719440339397442 0  0.2857044415400258 0.0137589173127316 0  -0.8945708364098356 -0.288306105327986 0  0.4043102720140535 0.7842914560451557 0  0.04123256238752064 -0.9026968245801402 0  0.2003676884403109 -0.9091888601740487 0  0.1068775558538842 -0.7373377130403223 0  -0.4804566783514427 -0.1763307203045643 0  0.108286342087769 -0.3993789328997278 0  -0.191883080105361 -0.3640821726430649 0  -0.07025064492006244 0.2984876656890053 0  -0.7039324641409584 0.788312126296613 0  -0.7311286585775438 0.8932502354831682 0  0.5171409396884947 0.1503852691889257 0  0.4229392823658633 -0.003216522184234835 0  -0.5621736087218259 -0.919558629836806 0  -0.626474064879544 -0.7266572613636506 0  0.2446828746617422 0.2867616783302419 0  0.1759429608742923 0.4776611759306416 0  -0.3468240303741654 -0.5260416435617549 0  -0.7465808808425306 0.4069574477998361 0  -0.7819962170660292 0.2802441065650652 0  -0.3742623214119594 -0.8547800509641984 0  0.1014498009713561 0.8506721983266377 0  0.4285217620918213 -0.5230190595570253 0  0.4091738370487775 -0.6256346204225141 0  0.78125 0.46875 0  0.90625 0.53125 0  -0.4791801348852565 0.2553992655702126 0  0.7843318610782772 -0.7086046956885941 0  0.8909728264971901 -0.7355183796514634 0  0.7041908166528879 -0.7830649143180282 0  0.7311821352
[...]
<PointData  Vectors="f_22"> 
<DataArray  type="Float64"  Name="f_22"  NumberOfComponents="3" format="ascii">-1.6957734183751644e-02 -1.5737310670851261e-02 0.0000000000000000e+00  -1.6957734183751644e-02 -1.5737310670851261e-02 0.0000000000000000e+00  -1.6957734183751644e-02 -1.5737310670851261e-02 0.0000000000000000e+00  -1.6957734183751644e-02 -1.5737310670851261e-02 0.0000000000000000e+00  -1.6824500413572661e-02 -2.1825598301383916e-02 0.0000000000000000e+00  -2.2746352217077156e-02 -1.5602059937047686e-02 0.0000000000000000e+00  -1.6824500413572661e-02 -2.1825598301383916e-02 0.0000000000000000e+00  -2.2746352217077156e-02 -1.5602059937047686e-02 0.0000000000000000e+00  -2.2883245708752730e-02 -2.1964734170434843e-02 0.0000000000000000e+00  -5.4764857711510212e-03 -1.5662059577716176e-02 0.0000000000000000e+00  -1.6883301998625016e-02 -4.4489097600663398e-03 0.0000000000000000e+00  -1.6883301998625016e-02 -4.4489097600663398e-03 0.0000000000000000e+00  -3.4236843649053647e-02 -1.5660097204049150e-02 0.0000000000000000e+00  -5.4764857711510212e-03 -1.5662059577716176e-02 0.0000000000000000e+00  -1.6882836193766661e-02 -3.3123659380873402e-02 0.0000000000000000e+00  -3.4236843649053647e-02 -1.5660097204049150e-02 0.0000000000000000e+00  -1.6882836193766661e-02 -3.3123659380873402e-02 0.0000000000000000e+00  -6.6843508800924767e-03 -3.3383533850990875e-02 0.0000000000000000e+00  -3.4456669056291599e-02 -5.6957131873900139e-03 0.0000000000000000e+00  -5.5248174404755809e-03 -1.0894764930646604e-02 0.0000000000000000e+00  -3.2161924355315501e-02 -3.3163292860427698e-02 0.0000000000000000e+00  -1.9657448931606609e-02 -4.6179425974361829e-03 0.0000000000000000e+00  -3.4176010538230363e-02 -2.5105427613279371e-02 0.0000000000000000e+00  -5.5117255276455526e-03 -4.4232519463774257e-03 0.0000000000000000e+00  -3.2068173538725764e-02 -3.0899241906644538e-02 0.0000000000000000e+00  -1.1721950512293002e-02 -2.7094577533971643e-02 0.0000000000000000e+00  -3.0971145583831235e-02 -5.4770092132333161e-03 0.0000000000000000e+00  -2.8300722701062549e-02 -1.0789096990477379e-02 0.0000000000000000e+00  -5.4822654934606465e-03 -2.6353681720164564e-02 0.0000000000000000e+00  -6.0494087975611587e-03 -2.9267288373271590e-02 0.0000000000000000e+00  -3.0454490024160563e-02 -4.9353484001656341e-03 0.0000000000000000e+00  -1.9659631022764093e-02 -3.2955092126725073e-02 0.0000000000000000e+00  -9.8245153172121930e-03 -5.9196210448339932e-03 0.0000000000000000e+00  -2.8710969829545203e-02 -3.2479525196827716e-02 0.0000000000000000e+00  -9.2467038577951372e-03 -2.2850760499532195e-02 0.0000000000000000e+00  -2.8958385524993434e-02 -1.0147555243713392e-02 0.0000000000000000e+00  -6.9804288333932037e-03 -3.3246877514969728e-02 0.0000000000000000e+00  -1.4881940009332528e-02 -1.1994540921050456e-02 0.0000000000000000e+00  -3.0402486706012255e-02 -3.0334776326420544e-02 0.0000000000000000e+00  -3.4297094153610222e-02 -2.6745434338848285e-02 0.0000000000000000e+00  -7.8398332621366484e-03 -1.5227900693269816e-02 0.0000000000000000e+00  -2.4687012319295605e-02 -2.8207580647863457e-02 0.0000000000000000e+00  -1.6932696294893895e-02 -6.5035258242385451e-03 0.0000000000000000e+00  -7.6503300984276275e-03 -1.5712237822590035e-02 0.0000000000000000e+00  -2.7970111005685225e-02 -1.5711037128093453e-02 0.0000000000000000e+00  -1.6933207952145840e-02 -2.6759445259696854e-02 0.0000000000000000e+00  -2.0672525667618718e-02 -6.2618633049384177e-03 0.0000000000000000e+00  -8.8732735755778901e-03 -5.0005137045965545e-03 0.0000000000000000e+00  -3.4383559375243920e-02 -3.3466327031588299e-02 0.0000000000000000e+00  -1.6840365184772374e-02 -3.1079507527963318e-02 0.0000000000000000e+00  -1.6840787287646816e-02 -1.0795262197198455e-02 0.0000000000000000e+00  -1.6932696294893895e-02 -6.5035258242385451e-03 0.0000000000000000e+00  -1.6933207952145840e-02 -2.6759445259696854e-02 0.0000000000000000e+00  -1.1728962698309725e-02 -1.5619318695272355e-02 0.0000000000000000e+00  -3.2071148009542395e-02 -1.5617471629909225e-02 0.0000000000000000e+00  -1.1728962698309725e-02 -1.5619318695272355e-02 0.0000000000000000e+00  -1.6840787287646816e-02 -1.0795262197198455e-02 0.0000000000000000e+00  -7.6503300984276275e-03 -1.5712237822590035e-02 0.0000000000000000e+00  -2.7970111005685225e-02 -1.5711037128093453e-02 0.0000000000000000e+00  -1.6840365184772374e-02 -3.1079507527963318e-02 0.0000000000000000e+00  -3.2071148009542395e-02 -1.5617471629909225e-02 0.0000000000000000e+00  -7.8844208188799513e-03 -6.0436792609656152e-03 0.0000000000000000e+00  -2.7587382423136419e-02 -2.4704663089304232e-02 0.0000000000000000e+00  -3.4338067031282400e-02 -1.4730158524638879e-02 0.0000000000000000e+00  -3.4473089596001392e-02 -4.5631786143666073e-03 0.0000000000000000e+00  -2.9165203643028183e-02 -4.4950340924620712e-03 0.0000000000000000e+00  -2.6856917125525386e-02 -4.7182526934361983e-03 0.0000000000000000e+00  -5.9981666934862234e-03 -3.0354259298008737e-02 0.0000000000000000e+00  -1.3098607976475152e-02 -3.2890614834426381e-02 0.0000000000000000e+00  -3.1445814562132364e-02 -2.1849661469650603e-02 0.0000000000000000e+00  -1.5898171304450662e-02 -2.8110556876258571e-02 0.0000000000000000e+00  -6.2435141537471118e-03 -2.9763480177854282e-02 0.0000000000000000e+00  -3.1898379912702099e-02 -1.7974473848190158e-02 0.0000000000000000e+00  -3.4123930113538939e-02 -8.9680271027023292e-03 0.0000000000000000e+00  -5.4976181988608489e-03 -8.9848292610329103e-03 0.0000000000000000e+00  -9.8136716461368744e-03 -4.2200471093004482e-03 0.0000000000000000e+00  -5.3061165463674379e-03 -5.2327553568650258e-03 0.0000000000000000e+00  -3.3425742127691116e-02 -2.4202607703287287e-02 0.0000000000000000e+00  -2.6748258950576705e-02 -2.5531659233571480e-02 0.0000000000000000e+00  -2.6170768491086151e-02 -3.3065308921891884e-02 0.0000000000000000e+00  -1.0198512076794604e-02 -2.7085720819482070e-02 0.0000000000000000e+00  -9.6764036419625526e-03 -8.5029094996647604e-03 0.0000000000000000e+00  -5.1967835755344135e-03 -1.8338604089552939e-02 0.0000000000000000e+00  -2.5029962438020109e-02 -3.3037818293155746e-02 0.0000000000000000e+00  -1.0803302936199712e-02 -3.2048569581372789e-02 0.0000000000000000e+00  -5.1575602041854639e-03 -3.2925537561871117e-02 0.0000000000000000e+00  -1.0985001952756321e-02 -3.0827720809091640e-02 0.0000000000000000e+00  -9.5403737004615130e-03 -2.4024897790525152e-02 0.0000000000000000e+00  -3.3092374216251455e-02 -4.2246173483810670e-03 0.0000000000000000e+00  -3.1996539284313778e-02 -9.7953447823460448e-03 0.0000000000000000e+00  -2.5255223901128963e-02 -8.3413806155885183e-03 0.0000000000000000e+00  -5.4377947376409181e-03 -2.2108030985500949e-02 0.0000000000000000e+00  -3.3629949324582936e-02 -1.0091955581190649e-02 0.0000000000000000e+00  -6.1818499687061211e-03 -2.3585356594433827e-02 0.0000000000000000e+00  -3.4580810942214449e-02 -3.1881132687437842e-02 0.0000000000000000e+00  -1.7020272567864727e-02 -2.1588725393800471e-02 0.0000000000000000e+00  -2.2815929669861165e-02 -1.6106157303208215e-02 0.0000000000000000e+00  -2.8030676143869646e-02 -1.0132889406953855e-02 0.0000000000000000e+00  -2.8046763279696518e-02 -2.1589112787347171e-02 0.0000000000000000e+00  -2.2768792009795959e-02 -4.3516566548843019e-03 0.0000000000000000e+00  -3.4428772541617615e-02 -3.0763827582233456e-02 0.0000000000000000e+00  -3.3358251774578677e-02 -3.1041106553572461e-02 0.0000000000000000e+00  -2.3784090706136941e-02 -2.8923237009894708e-02 0.0000000000000000e+00  -5.1124431209055203e-03 -3.2575234330317539e-02 0.0000000000000000e+00  -5.7193386117210159e-03 -6.0123397441106318e-03 0.0000000000000000e+00  -7.6751643346556538e-03 -1.5638176892060002e-02 0.0000000000000000e+00  -1.3296931607437086e-02 -4.1579562152458350e-03 0.0000000000000000e+00  -3.1190310839945647e-02 -2.9442298105580446e-02 0.0000000000000000e+00  -1.6859157610633724e-02 -3.3200213763846895e-02 0.0000000000000000e+00  -3.3150448590010900e-02 -4.0557208333339137e-03 0.0000000000000000e+00  -1.7020696164799395e-02 -1.5606342980498955e-02 0.0000000000000000e+00  -1.4292459220024364e-02 -9.3114724638538749e-03 0.0000000000000000e+00  -2.1767100617002259e-02 -8.5730615880587665e-03 0.0000000000000000e+00  -8.9400254058161037e-03 -9.4363915483676782e-03 0.0000000000000000e+00  -6.6524866884701637e-03 -1.7011543745193255e-02 0.0000000000000000e+00  -1.5356164295916743e-02 -1.9659966421629801e-02 0.0000000000000000e+00  -1.7670047550987805e-02 -3.0206513190700061e-02 0.0000000000000000e+00  -3.1662239173298037e-02 -3.3430454194887466e-02 0.0000000000000000e+00  -2.6913159615334425e-02 -3.3028891914839369e-02 0.0000000000000000e+00  -2.4528775185983190e-02 -4.1925852602940203e-03 0.0000000000000000e+00  -2.2817974871418373e-02 -7.5829101776283469e-03 0.0000000000000000e+00  -1.6908509428005866e-02 -3.0861232809450953e-02 0.0000000000000000e+00  -2.4081081867407608e-02 -1.4654742540618132e-02 0.0000000000000000e+00  -5.6763568404114206e-03 -2.3954177241368581e-02 0.0000000000000000e+00  -2.2674354677552556e-02 -1.5729384948695115e-02 0.0000000000000000e+00  -3.1284468053486031e-02 -6.4528864509835887e-03 0.0000000000000000e+00  -3.2419115286205828e-02 -6.6442943634767125e-03 0.0000000000000000e+00  -7.2642027307321866e-03 -4.2596996687099689e-03 0.0000000000000000e+00  -1.6828528141401407e-02 -2.7084313881053496e-02 0.0000000000000000e+00  -2.3911724153095427e-02 -2.9733888307465019e-02 0.0000000000000000e+00  -1.0467564318768680e-02 -3.1809335280799711e-02 0.0000000000000000e+00  -5.5180253663631284e-03 -8.1115652098610134e-03 0.0000000000000000e+00  -3.2857411750323057e-02 -3.2984994080863562e-02 0.0000000000000000e+00  -1.0669286678516498e-02 -3.3296659878111277e-02 0.0000000000000000e+00  -6.4659480990162240e-03 -3.0773221888157613e-02 0.0000000000000000e+00  -3.4304725860496467e-02 -2.1713413384188598e-02 0.0000000000000000e+00  -7.3054275519305869e-03 -9.5188938204597284e-03 0.0000000000000000e+00  -3.3213724388113250e-02 -2.7100239297258893e-02 0.0000000000000000e+00  -1.3707430254739059e-02 -6.7375089316034737e-03 0.0000000000000000e+00  -1.0551910004898756e-02 -9.8857770626096970e-03 0.0000000000000000e+00  -7.4739376896963191e-03 -2.2069713598479371e-02 0.0000000000000000e+00  -1.6828624394921454e-02 -1.6106570744953638e-02 0.0000000000000000e+00  -1.1462083870972951e-02 -1.9096341681963697e-02 0.0000000000000000e+00  -3.4549664247738678e-02 -2.1405043322836086e-02 0.0000000000000000e+00  -3.2612913768209142e-02 -2.2305100261788370e-02 0.0000000000000000e+00  -1.6950815418053322e-02 -2.1446829403494475e-02 0.0000000000000000e+00  -3.1772315366458623e-02 -1.5082320072925155e-02 0.0000000000000000e+00  -2.3008972947418944e-02 -3.2819339655712015e-02 0.0000000000000000e+00  -3.4194002472956835e-02 -7.3462161536586518e-03 0.0000000000000000e+00  -5.1465412782874661e-03 -2.7046179876115271e-02 0.0000000000000000e+00  -9.6389629640794977e-03 -2.8364421812048596e-02 0.0000000000000000e+00  -6.8442651151796223e-03 -6.0321033201221142e-03 0.0000000000000000e+00  -1.6859656168000923e-02 -6.7021947404219042e-03 0.0000000000000000e+00  -2.3724512392579757e-02 -3.0242652401685933e-02 0.0000000000000000e+00  -1.0628193789477110e-02 -1.6029450794897350e-02 0.0000000000000000e+00  -2.7671539662616786e-02 -2.5206933630162721e-02 0.0000000000000000e+00  -9.3730482131800866e-03 -3.1027430450660736e-02 0.0000000000000000e+00  -7.3045592749134709e-03 -3.2323789956634409e-02 0.0000000000000000e+00  -1.6859157610633724e-02 -3.3200213763846895e-02 0.0000000000000000e+00  -1.8953319693201364e-02 -3.3252319026541827e-02 0.0000000000000000e+00  -3.0344190869876216e-02 -2.1264286286349552e-02 0.0000000000000000e+00  -3.4247655524698301e-02 -1.9192917351617933e-02 0.0000000000000000e+00  -3.1756476232080687e-02 -2.7188511228793802e-02 0.0000000000000000e+00  -9.6468545976220801e-03 -2.1588712471214629e-02 0.0000000000000000e+00  -3.4170279980118498e-02 -9.3040321614018678e-03 0.0000000000000000e+00  -1.6950857084016748e-02 -1.0492919357992176e-02 0.0000000000000000e+00  -2.2674354677552556e-02 -1.5729384948695115e-02 0.0000000000000000e+00  -1.1685092643391340e-02 -1.5730441921080751e-02 0.0000000000000000e+00  -1.6950815418053322e-02 -2.1446829403494475e-02 0.0000000000000000e+00  -2.2475576731970637e-02 -1.0133083973102358e-02 0.0000000000000000e+00  -2.6439848117945173e-02 -6.2614570361763404e-03 0.0000000000000000e+00  -1.4903759743790166e-02 -5.6480212362499159e-03 0.0000000000000000e+00  -6.7662543055121904e-03 -4.3008248949127064e-03 0.0000000000000000e+00  -1.1519642595413047e-02 -4.7910758408042193e-03 0.0000000000000000e+00  -3.4355263456254441e-02 -3.3388457340797650e-02 0.0000000000000000e+00  -1.6950857084016748e-02 -1.0492919357992176e-02 0.0000000000000000e+00  -1.1685092643391340e-02 -1.5730441921080751e-02 0.0000000000000000e+00  -3.4124315850387166e-02 -2.8853018915038400e-02 0.0000000000000000e+00  -6.5418314449917064e-03 -6.8156558718406391e-03 0.0000000000000000e+00  -5.5862298347592529e-03 -1.3016972106729325e-02 0.0000000000000000e+00  -1.8716577518600792e-02 -4.2917562223618718e-03 0.0000000000000000e+00  -2.4808327965632072e-02 -5.5938973886913339e-03 0.0000000000000000e+00  -2.8260904514111059e-02 -1.8070300433530643e-02 0.0000000000000000e+00  -2.2729547666951313e-02 -2.2007025958212457e-02 0.0000000000000000e+00  -2.2752923425695175e-02 -2.1335389366743427e-02 0.0000000000000000e+00  -1.6859656168000923e-02 -6.7021947404219042e-03 0.0000000000000000e+00  -1.6908453985953732e-02 -4.3794966853979512e-03 0.0000000000000000e+00  -2.8031254741085102e-02 -1.5605882925167089e-02 0.0000000000000000e+00  -1.6828624394921454e-02 -1.6106570744953638e-02 0.0000000000000000e+00  -7.6751643346556538e-03 -1.5638176892060002e-02 0.0000000000000000e+00  -1.7020696164799395e-02 -1.5606342980498955e-02 0.0000000000000000e+00  -5.4690815140322497e-03 -1.5687567148084527e-02 0.0000000000000000e+00  -1.6908509428005866e-02 -3.0861232809450953e-02 0.0000000000000000e+00  -1.6828528141401407e-02 -2.7084313881053496e-02 0.0000000000000000e+00  -1.6908453985953732e-02 -4.3794966853979512e-03 0.0000000000000000e+00  -5.4690815140322497e-03 -1.5687567148084527e-02 0.0000000000000000e+00  -2.8031254741085102e-02 -1.5605882925167089e-02 0.0000000000000000e+00  -3.4250950093238502e-02 -1.5636383657291069e-02 0.0000000000000000e+00  -3.2030353294486981e-02 -1.5686553889588211e-02 0.0000000000000000e+00  -3.4250950093238502e-02 -1.5636383657291069e-02 0.0000000000000000e+00  -3.2030353294486981e-02 -1.5686553889588211e-02 0.0000000000000000e+00  -3.3828184634563038e-02 -3.0672633840917007e-02 0.0000000000000000e+00  -2.7674557710495439e-02 -1.8909795929657972e-02 0.0000000000000000e+00  -3.2007103906901008e-02 -1.0420519759314842e-02 0.0000000000000000e+00  -2.2822519386844656e-02 -2.1593837246892723e-02 0.0000000000000000e+00  -3.3638525876506502e-02 -5.0504241093504952e-03 0.0000000000000000e+00  -3.4438837852140254e-02 -4.1256958072751239e-03 0.0000000000000000e+00  -3.3413632381451966e-02 -4.9644119175718711e-03 0.0000000000000000e+00  -1.1886101119448220e-02 -5.5698861354615790e-03 0.0000000000000000e+00  -5.4130998934350258e-03 -1.0563958232125579e-02 0.0000000000000000e+00  -3.3814510337765669e-02 -6.3963020302481039e-03 0.0000000000000000e+00  -2.7627783617983633e-02 -3.1192358524923813e-02 0.0000000000000000e+00  -1.4151691880244429e-02 -3.3310299548536204e-02 0.0000000000000000e+00  -1.9636864355077974e-02 -2.6242742261217058e-02 0.0000000000000000e+00  -3.2777738662684235e-02 -3.3102217624474121e-02 0.0000000000000000e+00  -5.4260133558837490e-03 -4.1856499474192633e-03 0.0000000000000000e+00  -5.1285177002514601e-03 -3.0736194718569036e-02 0.0000000000000000e+00  -5.1256469585464681e-03 -2.9786196077457736e-02 0.0000000000000000e+00  -2.8337437120960117e-02 -3.1217969411897441e-02 0.0000000000000000e+00  -9.7895821435012489e-03 -3.3350975587515680e-02 0.0000000000000000e+00  -2.7567665121247746e-02 -4.1228152344799226e-03 0.0000000000000000e+00  -7.7627956636934737e-03 -2.7481118516585374e-02 0.0000000000000000e+00  -5.7410115414058358e-03 -3.2796558962561492e-02 0.0000000000000000e+00  -2.2127835277523517e-02 -4.3369290796696032e-03 0.0000000000000000e+00  -3.3875384597518286e-02 -3.3070182972054989e-02 0.0000000000000000e+00  -2.7525665531491533e-02 -7.0725091614575377e-03 0.0000000000000000e+00  -2.8743004951909460e-02 -2.9622877382103067e-02 0.0000000000000000e+00  -2.9148818036329672e-02 -4.1848977395751510e-03 0.0000000000000000e+00  -2.9065927749151791e-02 -6.5743469721518443e-03 0.0000000000000000e+00  -7.2681436349001467e-03 -9.2160976673910482e-03 0.0000000000000000e+00  -8.4119092336643435e-03 -3.2995395156443098e-02 0.0000000000000000e+00  -2.0045269583136256e-02 -1.7712044229075595e-02 0.0000000000000000e+00  -3.0866189355258113e-02 -2.6188434807161317e-02 0.0000000000000000e+00  -2.1982259207239865e-02 -2.6268554411703782e-02 0.0000000000000000e+00  -3.2330612728245355e-02 -1.0218382312845584e-02 0.0000000000000000e+00  -3.4434394378167962e-02 -3.3178257795787244e-02 0.0000000000000000e+00  -2.1854667626375536e-02 -1.1417456248452151e-02 0.0000000000000000e+00  -1.2385916787520592e-02 -1.4034579109555457e-02 0.0000000000000000e+00  -3.4493772789038035e-02 -2.6224227389493957e-02 0.0000000000000000e+00  -6.0087673713955549e-03 -3.2386238922314091e-02 0.0000000000000000e+00  -3.0357546288389707e-02 -2.5489053602143649e-02 0.0000000000000000e+00  -3.0372181565581146e-02 -3.3462491871668699e-02 0.0000000000000000e+00  -3.3628037492893295e-02 -1.4645698737529281e-02 0.0000000000000000e+00  -3.4454610029287652e-02 -1.1058948698577823e-02 0.0000000000000000e+00  -1.9385954034272939e-02 -3.0741929827907587e-02 0.0000000000000000e+00  -1.2411331269477768e-02 -2.5476885977161148e-02 0.0000000000000000e+00  -1.8084837490933075e-02 -2.4005915695907452e-02 0.0000000000000000e+00  -5.6987819493570738e-03 -5.3797218077862984e-03 0.0000000000000000e+00  -3.1313069756694047e-02 -1.3220869209634259e-02 0.0000000000000000e+00  -3.4480279327577856e-02 -3.2277187230016421e-02 0.0000000000000000e+00  -1.9784758158060321e-02 -1.2332208865223552e-02 0.0000000000000000e+00  -2.2551979122386347e-02 -3.1266715682591283e-02 0.0000000000000000e+00  -3.2522398242784703e-02 -2.2846623086277298e-02 0.0000000000000000e+00  -2.1539084944661595e-02 -3.2525791134934999e-02 0.0000000000000000e+00  -2.1054147359804220e-02 -3.3460064735044003e-02 0.0000000000000000e+00  -6.3858683725092182e-03 -4.5853754076204574e-03 0.0000000000000000e+00  -1.4708989862217203e-02 -3.1178602843848113e-02 0.0000000000000000e+00  -5.3847605887331305e-03 -6.0275750341872948e-03 0.0000000000000000e+00  -6.3138699671593792e-03 -1.2122977022594347e-02 0.0000000000000000e+00  -1.3242694958107598e-02 -3.0886690863037542e-02 0.0000000000000000e+00  -3.0586074862788529e-02 -4.5595049418784223e-03 0.0000000000000000e+00  -2.3482788082172884e-02 -3.1975776674249168e-02 0.0000000000000000e+00  -1.0340703227479871e-02 -1.1162146806349518e-02 0.0000000000000000e+00  -2.6587790865599328e-02 -3.3423730362974469e-02 0.0000000000000000e+00  -1.2633933243890030e-02 -2.3655867801153387e-02 0.0000000000000000e+00  -1.2893662669631645e-02 -2.9683007699867005e-02 0.0000000000000000e+00  -7.2187414277740435e-03 -2.6396806723466504e-02 0.0000000000000000e+00  -1.4850427137821125e-02 -4.7072940439384483e-03 0.0000000000000000e+00  -7.1112131697139841e-03 -2.6510760976661656e-02 0.0000000000000000e+00  -8.0501106670066817e-03 -1.3278485860996987e-02 0.0000000000000000e+00  -3.3227632626742096e-02 -1.8718573873184385e-02 0.0000000000000000e+00  -2.6371919953913893e-02 -5.4305782072297821e-03 0.0000000000000000e+00  -2.1793956699600766e-02 -6.0290219550009488e-03 0.0000000000000000e+00  -2.9064449307208109e-02 -3.2955816522275402e-02 0.0000000000000000e+00  -2.2693143058788560e-02 -3.3461758569199501e-02 0.0000000000000000e+00  -1.3423854264645062e-02 -4.1488246080373338e-03 0.0000000000000000e+00  -7.1094415746326065e