<?xml version="1.0"?>
<VTKFile type="UnstructuredGrid"  version="0.1"  >
<UnstructuredGrid>
<Piece  NumberOfPoints="1331" NumberOfCells="6000">
<Points>
<DataArray  type="Float64"  NumberOfComponents="3"  format="ascii">-3.141592653589793 -3.141592653589793 -3.141592653589793  -2.513274122871834 -3.141592653589793 -3.141592653589793  -1.884955592153876 -3.141592653589793 -3.141592653589793  -1.256637061435917 -3.141592653589793 -3.141592653589793  -0.6283185307179586 -3.141592653589793 -3.141592653589793  0 -3.141592653589793 -3.141592653589793  0.6283185307179586 -3.141592653589793 -3.141592653589793  1.256637061435917 -3.141592653589793 -3.141592653589793  1.884955592153876 -3.141592653589793 -3.141592653589793  2.513274122871834 -3.141592653589793 -3.141592653589793  3.141592653589793 -3.141592653589793 -3.141592653589793  -3.141592653589793 -2.513274122871834 -3.141592653589793  -2.513274122871834 -2.513274122871834 -3.141592653589793  -1.884955592153876 -2.513274122871834 -3.141592653589793  -1.256637061435917 -2.513274122871834 -3.141592653589793  -0.6283185307179586 -2.513274122871834 -3.141592653589793  0 -2.513274122871834 -3.141592653589793  0.6283185307179586 -2.513274122871834 -3.141592653589793  1.256637061435917 -2.513274122871834 -3.141592653589793  1.884955592153876 -2.513274122871834 -3.141592653589793  2.513274122871834 -2.513274122871834 -3.141592653589793  3.141592653589793 -2.513274122871834 -3.141592653589793  -3.141592653589793 -1.884955592153876 -3.141592653589793  -2.513274122871834 -1.884955592153876 -3.141592653589793  -1.884955592153876 -1.884955592153876 -3.141592653589793  -1.256637061435917 -1.884955592153876 -3.141592653589793  -0.6283185307179586 -1.884955592153876 -3.141592653589793  0 -1.884955592153876 -3.141592653589793  0.6283185307179586 -1.884955592153876 -3.141592653589793  1.256637061435917 -1.884955592153876 -3.141592653589793  1.884955592153876 -1.884955592153876 -3.141592653589793  2.513274122871834 -1.884955592153876 -3.141592653589793  3.141592653589793 -1.884955592153876 -3.141592653589793  -3.141592653589793 -1.256637061435917 -3.141592653589793  -2.513274122871834 -1.256637061435917 -3.141592653589793  -1.884955592153876 -1.256637061435917 -3.141592653589793  -1.256637061435917 -1.256637061435917 -3.141592653589793  -0.6283185307179586 -1.256637061435917 -3.141592653589793  0 -1.256637061435917 -3.141592653589793  0.6283185307179586 -1.256637061435917 -3.141592653589793  1.256637061435917 -1.256637061435917 -3.141592653589793  1.884955592153876 -1.256637061435917 -3.141592653589793  2.513274122871834 -1.256637061435917 -3.141592653589793  3.141592653589793 -1.256637061435917 -3.141592653589793  -3.141592653589793 -0.6283185307179586 -3.141592653589793  -2.513274122871834 -0.6283185307179586 -3.141592653589793  -1.884955592153876 -0.6283185307179586 -3.141592653589793  -1.256637061435917 -0.6283185307179586 -3.141592653589793  -0.6283185307179586 -0.6283185307179586 -3.141592653589793  0 -0.6283185307179586 -3.141592653589793  0.6283185307179586 -0.6283185307179586 -3.141592653589793  1.256637061435917 -0.6283185307179586 -3.141592653589793  1.884955592153876 -0.6283185307179586 -3.141592653589793  2.513274122871834 -0.6283185307179586 -3.141592653589793  3.141592653589793 -0.6283185307179586 -3.141592653589793  -3.141592653589793 0 -3.141592653589793  -2.513274122871834 0 -3.141592653589793  -1.884955592153876 0 -3.141592653589793  -1.256637061435917 0 -3.141592653589793  -0.6283185307179586 0 -3.141592653589793  0 0 -3.141592653589793  0.6283185307179586 0 -3.141592653589793  1.256637061435917 0 -3.141592653589793  1.884955592153876 0 -3.141592653589793  2.513274122871834 0 -3.141592653589793  3.141592653589793 0 -3.141592653589793  -3.141592653589793 0.6283185307179586 -3.141592653589793  -2.513274122871834 0.6283185307179586 -3.141592653589793  -1.884955592153876 0.6283185307179586 -3.141592653589793  -1.256637061435917 0.6283185307179586 -3.141592653589793  -0.6283185307179586 0.6283185307179586 -3.141592653589793  0 0.6283185307179586 -3.141592653589793  0.6283185307179586 0.6283185307179586 -3.141592653589793  1.256637061435917 0.6283185307179586 -3.141592653589793  1.884955592153876 0.6283185307179586 -3.141592653589793  2.513274122871834 0.6283185307179586 -3.141592653589793  3.141592653589793 0.6283185307179586 -3.141592653589793  -3.141592653589793 1.256637061435917 -3.141592653589793  -2.513274122871834 1.256637061435917 -3.141592653589793  -1.884955592153876 1.256637061435917 -3.141592653589793  -1.256637061435917 1.256637061435917 -3.141592653589793  -0.6283185307179586 1.256637061435917 -3.141592653589793  0 1.256637061435917 -3.141592653589793  0.6283185307179586 1.256637061435917 -3.141592653589793  1.256637061435917 1.256637061435917 -3.141592653589793  1.884955592153876 1.256637061435917 -3.141592653589793  2.513274122871834 1.256637061435917 -3.141592653589793  3.141592653589793 1.256637061435917 -3.141592653589793  -3.141592653589793 1.884955592153876 -3.141592653589793  -2.513274122871834 1.884955592153876 -3.141592653589793  -1.884955592153876 1.884955592153876 -3.141592653589793  -1.256637061435917 1.884955592153876 -3.141592653589793  -0.6283185307179586 1.884955592153876 -3.141592653589793  0 1.884955592153876 -3.141592653589793  0.6283185307179586 1.884955592153876 -3.141592653589793  1.256637061435917 1.884955592153876 -3.141592653589793  1.884955592153876 1.884955592153876 -3.141592653589793  2.513274122871834 1.884955592153876 -3.141592653589793  3.141592653589793 1.884955592153876 -3.141592653589793  -3.141592653589793 2.513274122871834 -3.141592653589793  -2.513274122871834 2.513274122871834 -3.141592653589793  -1.884955592153876 2.513274122871834 -3.141592653589793  -1.256637061435917 2.513274122871834 -3.141592653589793  -0.6283185307179586 2.513274122871834 -3.141592653589793  0 2.513274122871834 -3.141592653589793  0.6283185307179586 2.513274122871834 -3.141592653589793  1.256637061435917 2.513274122871834 -3.141592653589793  1.884955592153876 2.513274122871834 -3.141592653589793  2.513274122871834 2.513274122871834 -3.141592653589793  3.141592653589793 2.513274122871834 -3.141592653589793  -3.141592653589793 3.141592653589793 -3.141592653589793  -2.513274122871834 3.141592653589793 -3.141592653589793  -1.884955592153876 3.141592653589793 -3.141592653589793  -1.256637061435917 3.141592653589793 -3.141592653589793  -0.6283185307179586 3.141592653589793 -3.141592653589793  0 3.141592653589793 -3.141592653589793  0.6283185307179586 3.141592653589793 -3.141592653589793  1.256637061435917 3.141592653589793 -3.141592653589793  1.884955592153876 3.141592653589793 -3.141592653589793  2.513274122871834 3.141592653589793 -3.141592653589793  3.141592653589793 3.141592653589793 -3.141592653589793  -3.141592653589793 -3.141592653589793 -2.513274122871834  -2.513274122871834 -3.141592653589793 -2.513274122871834  -1.884955592153876 -3.141592653589793 -2.513274122871834  -1.256637061435917 -3.141592653589793 -2.513274122871834  -0.6283185307179586 -3.141592653589793 -2.513274122871834  0 -3.141592653589793 -2.513274122871834  0.6283185307179586 -3.141592653589793 -2.513274122871834  1.256637061435917 -3.141592653589793 -2.513274122871834  1.884955592153876 -3.141592653589793 -2.513274122871834  2.513274122871834 -3.141592653589793 -2.513274122871834  3.141592653589793 -3.141592653589793 -2.513274122871834  -3.141592653589793 -2.513274122871834 -2.513274122871834  -2.513274122871834 -2.513274122871834 -2.513274122871834  -1.884955592153876 -2.513274122871834 -2.513274122871834  -1.256637061435917 -2.513274122871834 -2.513274122871834  -0.6283185307179586 -2.513274122871834 -2.513274122871834  0 -2.513274122871834 -2.513274122871834  0.6283185307179586 -2.513274122871834 -2.513274122871834  1.256637061435917 -2.513274122871834 -2.513274122871834  1.884955592153876 -2.513274122871834 -2.513274122871834  2.513274122871834 -2.513274122871834 -2.513274122871834  3.141592653589793 -2.513274122871834 -2.513274122871834  -3.141592653589793 -1.884955592153876 -2.513274122871834  -2.513274122871834 -1.884955592153876 -2.513274122871834  -1.884955592153876 -1.884955592153876 -2.513274122871834  -1.256637061435917 -1.884955592153876 -2.513274122871834  -0.6283185307179586 -1.884955592153876 -2.513274122871834  0 -1.884955592153876 -2.513274122871834  0.6283185307179586 -1.884955592153876 -2.513274122871834  1.256637061435917 -1.884955592153876 -2.513274122871834  1.884955592153876 -1.884955592153876 -2.513274122871834  2.513274122871834 -1.884955592153876 -2.513274122871834  3.141592653589793 -1.884955592153876 -2.513274122871834  -3.141592653589793 -1.256637061435917 -2.513274122871834  -2.513274122871834 -1.256637061435917 -2.513274122871834  -1.884955592153876 -1.256637061435917 -2.513274122871834  -1.256637061435917 -1.256637061435917 -2.513274122871834  -0.6283185307179586 -1.256637061435917 -2.513274122871834  0 -1.256637061435917 -2.513274122871834  0.6283185307179586 -1.256637061435917 -2.513274122871834  1.256637061435917 -1.256637061435917 -2.513274122871834  1.884955592153876 -1.256637061435917 -2.513274122871834  2.513274122871834 -1.256637061435917 -2.513274122871834  3.141592653589793 -1.256637061435917 -2.513274122871834  -3.141592653589793 -0.6283185307179586 -2.513274122871834  -2.513274122871834 -0.6283185307179586 -2.513274122871834  -1.884955592153876 -0.6283185307179586 -2.513274122871834  -1.256637061435917 -0.6283185307179586 -2.513274122871834  -0.6283185307179586 -0.6283185307179586 -2.513274122871834  0 -0.6283185307179586 -2.513274122871834  0.6283185307179586 -0.6283185307179586 -2.513274122871834  1.256637061435917 -0.6283185307179586 -2.513274122871834  1.884955592153876 -0.6283185307179586 -2.513274122871834  2.513274122871834 -0.6283185307179586 -2.513274122871834  3.141592653589793 -0.6283185307179586 -2.513274122871834  -3.141592653589793 0 -2.513274122871834  -2.513274122871834 0 -2.513274122871834  -1.884955592153876 
[...]
<PointData  Vectors="f_11"> 
<DataArray  type="Float64"  Name="f_11"  NumberOfComponents="3" format="ascii">-1.2443309247083896e-14 1.5448659479448187e-14 6.0808460820120739e-16  -6.0264822822219311e-01 7.7742465461860940e-04 -1.4911676277152520e-03  -9.5849617808859600e-01 9.8451669161385490e-04 -5.5572315114389291e-04  -9.3712956752737453e-01 5.6845681277007895e-04 1.1774542822062786e-03  -5.6799636505947138e-01 9.5425787955952143e-05 1.3067511103677675e-03  9.0014052478792269e-15 -3.0752698674349050e-14 3.3238180988800626e-16  5.6799636505953977e-01 -9.5425787977481281e-05 -1.3067511103681917e-03  9.3712956752730370e-01 -5.6845681278254109e-04 -1.1774542822063682e-03  9.5849617808861109e-01 -9.8451669160287236e-04 5.5572315114458832e-04  6.0264822822217690e-01 -7.7742465459543447e-04 1.4911676277149372e-03  -1.2443309247083896e-14 1.5448659479448187e-14 6.0808460820120739e-16  -9.5425787992057146e-05 5.6799636505954609e-01 -1.3067511103680123e-03  -4.9070762979553967e-01 4.5675097033249223e-01 -2.7996754364874588e-03  -7.7694493093162209e-01 1.6417122235942616e-01 -1.9822305219069874e-03  -7.5534393264257627e-01 -1.9774572811529945e-01 -2.9423054216241938e-04  -4.5540596141757872e-01 -4.9075447741737771e-01 -1.3524166595805774e-04  7.7742465462581772e-04 -6.0264822822219188e-01 -1.4911676277148212e-03  4.5675097033248979e-01 -4.9070762979551796e-01 -2.7996754364876175e-03  7.5627047160297522e-01 -1.9841738171534101e-01 -2.5519140483816834e-03  7.7744463210854986e-01 1.6264228345265613e-01 -7.7762261027848503e-04  4.9075447741730099e-01 4.5540596141757589e-01 1.3524166595824447e-04  -9.5425787992057146e-05 5.6799636505954609e-01 -1.3067511103680123e-03  -5.6845681278194500e-04 9.3712956752729681e-01 -1.1774542822063840e-03  -1.9841738171534679e-01 7.5627047160299576e-01 -2.5519140483816001e-03  -3.0325271288166344e-01 2.8226024576292608e-01 -1.7273031043999127e-03  -2.8149241576294998e-01 -3.0337285065885145e-01 2.1577177366324682e-04  -1.6264228345262810e-01 -7.7744463210854986e-01 7.7762261027853707e-04  9.8451669161375797e-04 -9.5849617808861554e-01 -5.5572315114438080e-04  1.6417122235942874e-01 -7.7694493093158268e-01 -1.9822305219071028e-03  2.8226024576291608e-01 -3.0325271288166261e-01 -1.7273031044001644e-03  3.0337285065884723e-01 2.8149241576299966e-01 -2.1577177366323676e-04  1.9774572811527225e-01 7.5534393264256872e-01 2.9423054216210713e-04  -5.6845681278194500e-04 9.3712956752729681e-01 -1.1774542822063840e-03  -9.8451669160328219e-04 9.5849617808859866e-01 5.5572315114422858e-04  1.6264228345264700e-01 7.7744463210853720e-01 -7.7762261027887860e-04  2.8149241576299772e-01 3.0337285065885666e-01 -2.1577177366348093e-04  3.0325271288168715e-01 -2.8226024576293535e-01 1.7273031043999281e-03  1.9841738171535328e-01 -7.5627047160301830e-01 2.5519140483813737e-03  5.6845681277270695e-04 -9.3712956752732446e-01 1.1774542822065698e-03  -1.9774572811530319e-01 -7.5534393264257638e-01 -2.9423054216207303e-04  -3.0337285065886194e-01 -2.8149241576296313e-01 2.1577177366328325e-04  -2.8226024576295505e-01 3.0325271288166467e-01 1.7273031043999641e-03  -1.6417122235944526e-01 7.7694493093166206e-01 1.9822305219070182e-03  -9.8451669160328219e-04 9.5849617808859866e-01 5.5572315114422858e-04  -7.7742465459316838e-04 6.0264822822219488e-01 1.4911676277149846e-03  4.5540596141763440e-01 4.9075447741735867e-01 1.3524166595835758e-04  7.5534393264254951e-01 1.9774572811526767e-01 2.9423054216161230e-04  7.7694493093156591e-01 -1.6417122235943302e-01 1.9822305219070291e-03  4.9070762979548999e-01 -4.5675097033249668e-01 2.7996754364875936e-03  9.5425787960450105e-05 -5.6799636505949058e-01 1.3067511103681858e-03  -4.9075447741737127e-01 -4.5540596141760448e-01 -1.3524166595810542e-04  -7.7744463210855119e-01 -1.6264228345262927e-01 7.7762261027872572e-04  -7.5627047160297023e-01 1.9841738171535342e-01 2.5519140483812341e-03  -4.5675097033247414e-01 4.9070762979553112e-01 2.7996754364874197e-03  -7.7742465459316838e-04 6.0264822822219488e-01 1.4911676277149846e-03  1.6546835789355847e-14 -2.2257086930572126e-14 3.2534573380514190e-17  5.6799636505951123e-01 -9.5425787988131141e-05 -1.3067511103677994e-03  9.3712956752730359e-01 -5.6845681278134825e-04 -1.1774542822066403e-03  9.5849617808857268e-01 -9.8451669160456979e-04 5.5572315114428550e-04  6.0264822822216357e-01 -7.7742465458978795e-04 1.4911676277151416e-03  -1.5449083264868958e-14 1.1100722868322597e-14 -8.9241964331975502e-17  -6.0264822822220288e-01 7.7742465461969740e-04 -1.4911676277148905e-03  -9.5849617808857013e-01 9.8451669161447267e-04 -5.5572315114412222e-04  -9.3712956752734733e-01 5.6845681277086716e-04 1.1774542822062955e-03  -5.6799636505949869e-01 9.5425787958457260e-05 1.3067511103675828e-03  1.6546835789355847e-14 -2.2257086930572126e-14 3.2534573380514190e-17  7.7742465462227422e-04 -6.0264822822221054e-01 -1.4911676277153724e-03  4.5675097033249312e-01 -4.9070762979552884e-01 -2.7996754364879284e-03  7.5627047160300098e-01 -1.9841738171535209e-01 -2.5519140483815698e-03  7.7744463210853365e-01 1.6264228345265350e-01 -7.7762261027879717e-04  4.9075447741734995e-01 4.5540596141761414e-01 1.3524166595801638e-04  -9.5425787995370888e-05 5.6799636505954454e-01 -1.3067511103677116e-03  -4.9070762979553367e-01 4.5675097033250878e-01 -2.7996754364875641e-03  -7.7694493093156747e-01 1.6417122235942475e-01 -1.9822305219073418e-03  -7.5534393264253585e-01 -1.9774572811528585e-01 -2.9423054216200874e-04  -4.5540596141758294e-01 -4.9075447741737066e-01 -1.3524166595835034e-04  7.7742465462227422e-04 -6.0264822822221054e-01 -1.4911676277153724e-03  9.8451669161651639e-04 -9.5849617808857501e-01 -5.5572315114421362e-04  1.6417122235944584e-01 -7.7694493093164363e-01 -1.9822305219072208e-03  2.8226024576293612e-01 -3.0325271288167327e-01 -1.7273031044001122e-03  3.0337285065882769e-01 2.8149241576298650e-01 -2.1577177366358569e-04  1.9774572811527835e-01 7.5534393264260169e-01 2.9423054216237465e-04  -5.6845681278332400e-04 9.3712956752730248e-01 -1.1774542822064102e-03  -1.9841738171534606e-01 7.5627047160297611e-01 -2.5519140483811231e-03  -3.0325271288166816e-01 2.8226024576292225e-01 -1.7273031043997670e-03  -2.8149241576294742e-01 -3.0337285065886438e-01 2.1577177366303302e-04  -1.6264228345263171e-01 -7.7744463210854586e-01 7.7762261027872562e-04  9.8451669161651639e-04 -9.5849617808857501e-01 -5.5572315114421362e-04  5.6845681276856443e-04 -9.3712956752734089e-01 1.1774542822064228e-03  -1.9774572811528979e-01 -7.5534393264253719e-01 -2.9423054216234739e-04  -3.0337285065883385e-01 -2.8149241576295470e-01 2.1577177366347868e-04  -2.8226024576295405e-01 3.0325271288167116e-01 1.7273031043999524e-03  -1.6417122235943934e-01 7.7694493093167838e-01 1.9822305219072693e-03  -9.8451669160210908e-04 9.5849617808852727e-01 5.5572315114428474e-04  1.6264228345265888e-01 7.7744463210854575e-01 -7.7762261027887784e-04  2.8149241576298561e-01 3.0337285065884306e-01 -2.1577177366315954e-04  3.0325271288169325e-01 -2.8226024576295067e-01 1.7273031043999680e-03  1.9841738171535725e-01 -7.5627047160298200e-01 2.5519140483810849e-03  5.6845681276856443e-04 -9.3712956752734089e-01 1.1774542822064228e-03  9.5425787964002046e-05 -5.6799636505950768e-01 1.3067511103677927e-03  -4.9075447741738154e-01 -4.5540596141758727e-01 -1.3524166595803761e-04  -7.7744463210853643e-01 -1.6264228345262483e-01 7.7762261027850411e-04  -7.5627047160300465e-01 1.9841738171536072e-01 2.5519140483815884e-03  -4.5675097033247647e-01 4.9070762979552790e-01 2.7996754364879939e-03  -7.7742465459203485e-04 6.0264822822220199e-01 1.4911676277154981e-03  4.5540596141765027e-01 4.9075447741740214e-01 1.3524166595824496e-04  7.5534393264258037e-01 1.9774572811527069e-01 2.9423054216193046e-04  7.7694493093162365e-01 -1.6417122235943693e-01 1.9822305219072038e-03  4.9070762979552596e-01 -4.5675097033248868e-01 2.7996754364880516e-03  9.5425787964002046e-05 -5.6799636505950768e-01 1.3067511103677927e-03  -1.2443309247083896e-14 1.5448659479448187e-14 6.0808460820120739e-16  -6.0264822822219311e-01 7.7742465461860940e-04 -1.4911676277152520e-03  -9.5849617808859600e-01 9.8451669161385490e-04 -5.5572315114389291e-04  -9.3712956752737453e-01 5.6845681277007895e-04 1.1774542822062786e-03  -5.6799636505947138e-01 9.5425787955952143e-05 1.3067511103677675e-03  9.0014052478792269e-15 -3.0752698674349050e-14 3.3238180988800626e-16  5.6799636505953977e-01 -9.5425787977481281e-05 -1.3067511103681917e-03  9.3712956752730370e-01 -5.6845681278254109e-04 -1.1774542822063682e-03  9.5849617808861109e-01 -9.8451669160287236e-04 5.5572315114458832e-04  6.0264822822217690e-01 -7.7742465459543447e-04 1.4911676277149372e-03  -1.2443309247083896e-14 1.5448659479448187e-14 6.0808460820120739e-16  -2.1658657216463832e-03 -1.1973739414385134e-03 4.1599691919989717e-03  -4.8392959789351075e-01 -7.8629291901263093e-04 2.1305068235384426e-03  -7.7117872117231601e-01 -1.0177229669099876e-03 8.6674003214094752e-05  -7.5890367885339693e-01 -1.6368741797746014e-03 8.8432892142381028e-04  -4.6375815450663771e-01 -2.0804118083520783e-03 3.2561315775862516e-03  -1.1973739414420500e-03 -2.1658657216487571e-03 4.1599691919990186e-03  4.6371305232866000e-01 -2.2676178551068352e-03 2.4539601847500155e-03  7.6242687960218769e-01 -2.5211460768894199e-03 1.8091055596598744e-04  7.7403834858798437e-01 -2.5039410810817364e-03 4.4852446037891257e-04  4.8225286551692903e-01 -1.9569688097494835e-03 3.0489466041769306e-03  -2.1658657216463832e-03 -1.1973739414385134e-03 4.1599691919989717e-03  -2.2676178550953851e-03 4.6371305232874266e-01 2.4539601847500011e-03  -3.9331457600770298e-01 3.7342275951364945e-01 4.1844031378711723e-04  -6.2427363670367730e-01 1.3638150751958339e-01 -1.7280204089980685e-03  -6.1188103674573591e-01 -1.5663890525197854e-01 -1.0780431452925379e-03  -3.7277772358702077e-01 -3.9360953486283295e-01 1.2369642439241197e-03  -7.8629291901890878e-04 -4.8392959789353251e-01 2.1305068235384673e-03  3.7342275951362219e-01 -3.9331457600772901e-01 4.1844031378718223e-04  6.1586363794182453e-01 -1.5675352712973895e-01 -1.7609376641182358e-03  6.2737540181276541e-01 1.3565588447381452e-01 -1.3392251032976496e-03  3.9159829429938781e-01 3.7272476991260567e-01 1.3317118918601707e-03  -2.2676178550953851e-03 4.6371305232874266e-01 2.4539601847500011e-03  -2.5211460768850805e-03 7.6242687960219790e-01 1.8091055596652122e-04  -1.5675352712974358e-01 6.1586363794182986e-01 -1.7609376641182658e-03  -2.4108818409674368e-01 2.3218142633881358e-01 -3.9094218567150892e-03  -2.2874947506355284e-01 -2.4174655277425458e-01 -3.3196191299544766e-03  -1.3627606604821110e-01 -6.2506491463035652e-01 -8.8591183753921818e-04  -1.0177229669115929e-03 -7.7117872117240505e-01 8.6674003214245253e-05  1.3638150751957590e-01 -6.2427363670371894e-01 -1.7280204089978966e-03  2.3218142633881303e-01 -2.4108818409674387e-01 -3.9094218567150667e-03  2.4377245713449394e-01 2.3219221645623522e-01 -3.4248801868765420e-03  1.5460786560849321e-01 6.1561166717058602e-01 -8.6410186173704830e-04  -2.5211460768850805e-03 7.6242687960219790e-01 1.8091055596652122e-04  -2.5039410810805377e-03 7.7403834858796972e-01 4.4852446037843368e-04  1.3565588447382285e-01 6.2737540181276386e-01 -1.3392251032976412e-03  2.3219221645622523e-01 2.4377245713451101e-01 -3.4248801868766152e-03  2.4431555153946916e-01 -2.2995369680516203e-01 -2.8382840026282921e-03  1.5559526263674345e-01 -6.1302244317515242e-01 -2.0386873328689429e-04  -1.6368741797754794e-03 -7.5890367885340104e-01 8.8432892142384931e-04  -1.5663890525197785e-01 -6.1188103674572014e-01 -1.0780431452928241e-03  -2.4174655277426180e-01 -2.2874947506355001e-01 -3.3196191299546068e-03  -2.2995369680514091e-01 2.4431555153945350e-01 -2.8382840026284625e-03  -1.3789700889708012e-01 6.2745422548158236e-01 -4.8372105236057551e-04  -2.5039410810805377e-03 7.7403834858796972e-01 4.4852446037843368e-04  -1.9569688097462244e-03 4.8225286551695856e-01 3.0489466041771869e-03  3.7272476991261494e-01 3.9159829429937981e-01 1.3317118918602646e-03  6.1561166717055082e-01 1.5460786560850551e-01 -8.6410186173732455e-04  6.2745422548160668e-01 -1.3789700889707632e-01 -4.8372105236068008e-04  3.9190210830918626e-01 -3.7410836464893599e-01 2.1433208511647877e-03  -2.0804118083525940e-03 -4.6375815450667679e-01 3.2561315775862182e-03  -3.9360953486285277e-01 -3.7277772358698252e-01 1.2369642439243780e-03  -6.2506491463034453e-01 -1.3627606604820816e-01 -8.8591183753910911e-04  -6.1302244317518351e-01 1.5559526263674439e-01 -2.0386873328712290e-04  -3.7410836464896213e-01 3.9190210830917643e-01 2.1433208511648302e-03  -1.9569688097462244e-03 4.8225286551695856e-01 3.0489466041771869e-03  -1.1973739414318130e-03 -2.1658657216505517e-03 4.1599691919983924e-03  4.6371305232872312e-01 -2.2676178551044113e-03 2.4539601847500029e-03  7.6242687960216071e-01 -2.5211460768810325e-03 1.8091055596621946e-04  7.7403834858797382e-01 -2.5039410810819827e-03 4.4852446037864179e-04  4.8225286551693425e-01 -1.9569688097441731e-03 3.0489466041768811e-03  -2.1658657216537323e-03 -1.1973739414357783e-03 4.1599691919987332e-03  -4.8392959789354645e-01 -7.8629291901242200e-04 2.1305068235381408e-03  -7.7117872117231145e-01 -1.0177229669103235e-03 8.6674003214374653e-05  -7.5890367885344356e-01 -1.6368741797757238e-03 8.8432892142329702e-04  -4.6375815450666663e-01 -2.0804118083498383e-03 3.2561315775859567e-03  -1.1973739414318130e-03 -2.1658657216505517e-03 4.1599691919983924e-03  -7.8629291901083213e-04 -4.8392959789352147e-01 2.1305068235382761e-03  3.7342275951363602e-01 -3.9331457600771624e-01 4.1844031378718494e-04  6.1586363794183696e-01 -1.5675352712973756e-01 -1.7609376641183169e-03  6.2737540181276230e-01 1.3565588447382362e-01 -1.3392251032975941e-03  3.9159829429935061e-01 3.7272476991261078e-01 1.3317118918598260e-03  -2.2676178551019918e-03 4.6371305232869697e-01 2.4539601847499821e-03  -3.9331457600772129e-01 3.7342275951362880e-01 4.1844031378758642e-04  -6.2427363670374525e-01 1.3638150751957542e-01 -1.7280204089984270e-03  -6.1188103674573380e-01 -1.5663890525197799e-01 -1.0780431452924010e-03  -3.7277772358703332e-01 -3.9360953486285594e-01 1.2369642439239411e-03  -7.8629291901083213e-04 -4.8392959789352147e-01 2.1305068235382761e-03  -1.0177229669137283e-03 -7.7117872117237762e-01 8.6674003213998584e-05  1.3638150751957487e-01 -6.2427363670372915e-01 -1.7280204089984493e-03  2.3218142633881333e-01 -2.4108818409674809e-01 -3.9094218567152358e-03  2.4377245713450463e-01 2.3219221645622889e-01 -3.4248801868767003e-03  1.5460786560848991e-01 6.1561166717057103e-01 -8.6410186173718393e-04  -2.5211460768803881e-03 7.6242687960222322e-01 1.8091055596625651e-04  -1.5675352712973811e-01 6.1586363794179644e-01 -1.7609376641183397e-03  -2.4108818409674873e-01 2.3218142633881439e-01 -3.9094218567146573e-03  -2.2874947506355481e-01 -2.4174655277426921e-01 -3.3196191299546002e-03  -1.3627606604822098e-01 -6.2506491463034441e-01 -8.8591183753949671e-04  -1.0177229669137283e-03 -7.7117872117237762e-01 8.6674003213998584e-05  -1.6368741797747669e-03 -7.5890367885345422e-01 8.8432892142381743e-04  -1.5663890525197446e-01 -6.1188103674574024e-01 -1.0780431452926957e-03  -2.4174655277425716e-01 -2.2874947506355706e-01 -3.3196191299545734e-03  -2.2995369680517858e-01 2.4431555153947812e-01 -2.8382840026284469e-03  -1.3789700889706769e-01 6.2745422548151530e-01 -4.8372105236018032e-04  -2.5039410810794027e-03 7.7403834858802445e-01 4.4852446037901237e-04  1.3565588447383398e-01 6.2737540181281637e-01 -1.3392251032972357e-03  2.3219221645621779e-01 2.4377245713449869e-01 -3.4248801868767722e-03  2.4431555153945783e-01 -2.2995369680517058e-01 -2.8382840026280457e-03  1.5559526263675413e-01 -6.1302244317521182e-01 -2.0386873328688920e-04  -1.6368741797747669e-03 -7.5890367885345422e-01 8.8432892142381743e-04  -2.0804118083471955e-03 -4.6375815450668345e-01 3.2561315775859021e-03  -3.9360953486285510e-01 -3.7277772358703454e-01 1.2369642439241592e-03  -6.2506491463035130e-01 -1.3627606604820769e-01 -8.8591183753911518e-04  -6.1302244317518539e-01 1.5559526263674670e-01 -2.0386873328685616e-04  -3.7410836464892400e-01 3.9190210830918465e-01 2.1433208511651108e-03  -1.9569688097499610e-03 4.8225286551694380e-01 3.0489466041772120e-03  3.7272476991261133e-01 3.9159829429940912e-01 1.3317118918601725e-03  6.1561166717059157e-01 1.5460786560848930e-01 -8.6410186173723261e-04  6.2745422548159158e-01 -1.3789700889707779e-01 -4.8372105236088304e-04  3.9190210830916228e-01 -3.7410836464891933e-01 2.1433208511650427e-03  -2.0804118083471955e-03 -4.6375815450668345e-01 3.2561315775859021e-03  -2.1658657216463832e-03 -1.1973739414385134e-03 4.1599691919989717e-03  -4.8392959789351075e-01 -7.8629291901263093e-04 2.1305068235384426e-03  -7.7117872117231601e-01 -1.0177229669099876e-03 8.6674003214094752e-05  -7.5890367885339693e-01 -1.6368741797746014e-03 8.8432892142381028e-04  -4.6375815450663771e-01 -2.0804118083520783e-03 3.2561315775862516e-03  -1.1973739414420500e-03 -2.1658657216487571e-03 4.1599691919990186e-03  4.6371305232866000e-01 -2.2676178551068352e-03 2.4539601847500155e-03  7.6242687960218769e-01 -2.5211460768894199e-03 1.8091055596598744e-04  7.7403834858798437e-01 -2.5039410810817364e-03 4.4852446037891257e-04  4.8225286551692903e-01 -1.9569688097494835e-03 3.0489466041769306e-03  -2.1658657216463832e-03 -1.1973739414385134e-03 4.1599691919989717e-03  -1.7034085253580346e-03 -3.7567384335835812e-04 2.5777943920076694e-03  -1.7887017940264396e-01 -3.4529934916532022e-04 2.8114221284614746e-03  -2.9029175586209022e-01 -7.1998512104397825e-04 8.5481503146671517e-04  -2.9317114609346190e-01 -1.2464917019251870e-03 -5.0183699238815350e-04  -1.8316101141948740e-01 -1.6041299842813562e-03 5.9489055390037386e-04  -3.7567384335672872e-04 -1.7034085253550750e-03 2.5777943920085753e-03  1.8378157174464277e-01 -1.6687094668480979e-03 2.8174010831167034e-03  2.9565113118912595e-01 -1.5455563507819562e-03 1.0354926116404371e-03  2.9180207398934216e-01 -1.2379558894162245e-03 -4.0079812579359354e-04  1.7719361434874073e-01 -7.6577537098642507e-04 5.2131050661562985e-04  -1.7034085253580346e-03 -3.7567384335835812e-04 2.5777943920076694e-03  -1.6687094668458534e-03 1.8378157174464282e-01 2.8174010831167559e-03  -1.4410058508972096e-01 1.4909710242208982e-01 3.0532674514041880e-03  -2.3402606043690663e-01 5.8237411283042828e-02 1.0978298054582173e-03  -2.3693535722751774e-01 -5.3944112066614550e-02 -2.7546817461046466e-04  -1.4842547060860417e-01 -1.4448322344092018e-01 8.1664386548613191e-04  -3.4529934916202181e-04 -1.7887017940265099e-01 2.8114221284619612e-03  1.4909710242208643e-01 -1.4410058508970700e-01 3.0532674514046633e-03  2.3949056432520846e-01 -5.3479529382662615e-02 1.2754266099013381e-03  2.3566543288113170e-01 5.8474353707451139e-02 -1.4393346831471400e-04  1.4253319002632653e-01 1.4910612712702151e-01 7.7660569320304985e-04  -1.6687094668458534e-03 1.8378157174464282e-01 2.8174010831167559e-03  -1.5455563507798579e-03 2.9565113118911385e-01 1.0354926116403541e-03  -5.3479529382664509e-02 2.3949056432522028e-01 1.2754266099013524e-03  -8.7478307920568876e-02 9.2679992904944358e-02 -6.8020791107223139e-04  -9.0596346007338832e-02 -8.8510119812233445e-02 -2.1328411533861279e-03  -5.8269807442280372e-02 -2.3475414387421970e-01 -1.1300866595668612e-03  -7.1998512104433907e-04 -2.9029175586210171e-01 8.5481503146676385e-04  5.8237411283041926e-02 -2.3402606043690188e-01 1.0978298054581082e-03  9.2679992904950145e-02 -8.7478307920571027e-02 -6.8020791107237005e-04  8.9042896246950526e-02 9.3445633205006928e-02 -2.0219031610091611e-03  5.2102552747611899e-02 2.3978608504587109e-01 -1.0161076839527985e-03  -1.5455563507798579e-03 2.9565113118911385e-01 1.0354926116403541e-03  -1.2379558894164075e-03 2.9180207398931923e-01 -4.0079812579308624e-04  5.8474353707448870e-02 2.3566543288111794e-01 -1.4393346831459710e-04  9.3445633204991219e-02 8.9042896246937828e-02 -2.0219031610091702e-