<?xml version="1.0"?>
<VTKFile type="UnstructuredGrid"  version="0.1"  >
<UnstructuredGrid>
<Piece  NumberOfPoints="1380" NumberOfCells="2630">
<Points>
<DataArray  type="Float64"  NumberOfComponents="3"  format="ascii">-1 -1 0  1 -1 0  1 1 0  -1 1 0  0 -1 0  1 0 0  0 1 0  -1 0 0  0 0 0  -1 -0.5 0  -0.5 -1 0  -0.5 1 0  -1 0.5 0  1 -0.5 0  0.5 -1 0  1 0.5 0  0.5 1 0  0.4166666666666666 -0.4166666666666667 0  -0.4166666666666667 0.4166666666666667 0  -0.25 -0.5 0  0.5 0.25 0  -0.4861111111111112 -0.06944444444444445 0  0.0732758620689655 0.507183908045977 0  -0.625 -0.625 0  0.625 0.625 0  0.7380952380952381 -0.25 0  -0.7099116161616161 0.2105429292929293 0  -0.25 0.7380952380952381 0  0.105392156862745 -0.6348039215686275 0  0.6770833333333334 -0.6770833333333333 0  -0.6770833333333334 0.6770833333333334 0  0.3472222222222222 -0.06944444444444446 0  -0.7264957264957265 -0.3044871794871795 0  0.3141940982507127 0.7297313660835709 0  0.02049587951122483 -0.3227479397556124 0  -0.2690972222222223 0.1475694444444444 0  0.3859500089908372 -0.7274430156831472 0  -0.2228477945123298 -0.1761765495248019 0  0.2182539682539683 0.1884920634920635 0  0.75 0.375 0  -0.145442219440968 -0.7602211097204841 0  0.7088913690476191 0.0427827380952381 0  -0.75 -1 0  -1 -0.75 0  1 0.75 0  0.75 1 0  -0.7439982703698937 -0.04614153195464455 0  -0.4609235096577606 -0.3356498099556895 0  0.4063134471431929 0.4895621842856023 0  0.25 -1 0  -0.25 -1 0  -0.75 1 0  0.75 -1 0  -1 -0.25 0  -1 0.25 0  1 -0.25 0  -0.25 1 0  1 -0.75 0  -1 0.75 0  0.25 1 0  1 0.25 0  -0.4041423272138783 -0.7597141090712928 0  0.06500839607911253 0.7578103030529481 0  -0.1572801182352047 0.3838997021864289 0  -0.6528005242053915 0.4409494757946086 0  -0.4930160984848485 0.1544744318181818 0  -0.4732142857142858 0.7752976190476191 0  0.6398809523809523 -0.4538690476190476 0  0.5166054117396399 -0.2161233620965164 0  -0.002273787244753427 0.2232363985975174 0  0.1500564496765022 -0.1524955293952667 0  0.2016720420046758 -0.4410343282803009 0  -0.08495178036419618 0.6274139771124571 0  -0.8367311471133162 0.3642591720794645 0  -0.8333333333333334 -0.625 0  -0.594323836800685 -0.8231079456002283 0  -0.4466957714776065 -0.5349126855671806 0  0.8125 0.5625 0  0.78125 0.78125 0  0.5091392650016769 0.7947130883338923 0  0.125 -0.8382681931833136 0  -0.8184523809523809 -0.8184523809523809 0  -0.07781530426104531 -0.5819319697006881 0  0.5085055196703295 0.04967610411902112 0  0.2918471072074933 -0.276017202318847 0  0.5120763537765269 -0.5898771553229597 0  0.625 -0.8585349462365591 0  0.8158532234335381 -0.8158532234335381 0  -0.5198088446315396 0.5739411553684605 0  -0.8585349462365591 0.625 0  -0.8150493805516597 0.8156205699829586 0  0.8585349462365591 -0.625 0  -0.2688268348649726 0.5439331383603209 0  0.8242100426758139 -0.4436043596336612 0  0.5833756314287952 0.4479378157143976 0  0.8690476190476191 -0.125 0  -0.125 0.8690476190476191 0  -0.8692745600729823 0.125 0  0.8696725120759167 0.125 0  -0.625 0.8711516477451908 0  0.2339522463269718 0.3879558377955778 0  0.2453709502295031 0.5655822922838026 0  0.1730610651637797 0.02021709580868947 0  0.3245402594056757 -0.5644672020485209 0  -0.7291666666666666 -0.4816595441595442 0  -1 -0.375 0  -0.5811140848639904 -0.2127276307675001 0  0.673332592838314 0.2158348143233718 0  0.375 1 0  -0.5714768890989919 0.2985103444040069 0  -1 -0.125 0  -0.8453692574786325 -0.1875 0  -0.3144549134065865 -0.02408675326008025 0  -0.2898414972096258 -0.3336092734780093 0  -0.1075052092206287 -0.4224330421314983 0  -0.05043970703604117 -0.1652278959397459 0  0.6459672950297897 -0.1113415301525317 0  0.4645210271029513 0.6398480556579343 0  0.3512863754411909 0.0937979496253573 0  -0.6063160985568274 0.03891469652249891 0  -0.3428819444444445 0.8690476190476191 0  0.625 1 0  -0.1602164796159982 0.02697860906625157 0  0.04648110064133829 -0.4808416424239687 0  1 0.875 0  -0.3836102479201657 0.6484936449177356 0  -0.3776011723096096 0.263078478984336 0  -0.6024978259969829 -0.3949628096211138 0  0.125 1 0  0.2010781308272777 0.8456221018461906 0  0.2822509696388829 -0.845902544691141 0  -0.3285533674953515 -0.6289773550938936 0  0.3461306793221754 0.278777492464833 0  0.4737475672408696 -0.8508448959534423 0  0.2384632828836344 -0.7029523187242811 0  -0.004777287059791593 0.3759269695907358 0  -0.8499735021850066 -0.3912320205328522 0  0.1222536293721587 0.2963971539625205 0  -0.3769456520999688 -0.203572526805711 0  -0.2749617205755651 -0.8464290792698902 0  0.004805888512766143 -0.747174355248311 0  -0.125 -1 0  -0.06001061822252458 -0.8724007765244854 0  0.875 0.4375 0  0.854421179608893 0.271342359217786 0  0.875 1 0  -0.1499861095763589 0.2358309656934888 0  0.3381943639137225 0.8663061796405532 0  -0.7853090110442228 0.4998412775277108 0  0.7398165998560814 -0.5535192694951373 0  0.1580042122341573 -0.3100246140259917 0  -0.7291666666666667 -0.7142857142857142 0  -0.375 -1 0  0.6483368386154684 0.8514905990110488 0  -0.1295370103291928 -0.2826118305021242 0  0.07458201853700455 0.1123894386563915 0  0.6146465857036327 -0.3161203659316075 0  0.5551898493894731 -0.740296118159085 0  0.375 -1 0  0.482702798370208 -0.084133350091034 0  0.87890625 0.68359375 0  -0.05917195534525846 0.4971092425697621 0  0.1260710309213975 0.6343750312956699 0  0.8690476190476191 -0.3077066815262848 0  -0.2912010232560567 0.3668168386732139 0  -0.875 1 0  -1 0.875 0  1 -0.875 0  0.875 -1 0  -0.8689564281364567 -0.006189266075306407 0  -0.7449425635110547 0.08458938160051771 0  -0.7150266761936593 -0.1739444581417552 0  -0.5260034831318311 -0.711099823962112 0  -0.4724626808827322 -0.871722230709409 0  0.4734436795977052 0.377714794132168 0  -0.875 -1 0  -1 -0.875 0  0.6927189078571988 0.5156567235715964 0  -0.3742497615796874 -0.4296005251260107 0  -0.1969436423297711 -0.6387157229772615 0  -0.6179496409766825 -0.08933356056510935 0  -0.424405057115988 0.04452428810878029 0  -0.08479048335844169 0.1279607007132633 0  0.003830300099055113 0.8712085230656206 0  0.8748778838820267 -1.379218479898026e-05 0  -0.375 1 0  -0.625 1 0  1 0.125 0  -0.125 1 0  1 -0.375 0  1 -0.125 0  1 -0.625 0  0.625 -1 0  0.125 -1 0  -0.625 -1 0  -1 -0.625 0  -1 0.125 0  -1 0.375 0  -1 0.625 0  1 0.375 0  1 0.625 0  0.6325660748712082 0.3335187599557389 0  -0.06420945895056573 0.7549874027425891 0  -0.8769015540914771 0.2478802253893416 0  0.871875 0.871875 0  -0.6868091492840067 0.3270978624973681 0  -0.5363597469565949 0.412994850055505 0  -0.6803734992638302 0.5574295000651103 0  -0.7076253581162534 -0.8803439094224437 0  -0.8778089002295137 -0.5106896447504627 0  -0.3860184984222981 0.530566778071246 0  0.6109900617121508 0.1128453077697081 0  0.3896945134930274 -0.1915382873255086 0  0.7605656944697778 -0.06822134873122943 0  0.3576151269893478 0.5948388411612135 0  -0.5689902680792265 -0.5143596830118065 0  0.6262446286847614 -0.5735657901943212 0  0.2030558252325225 -0.5625263842513452 0  0.6123273142928579 0.7407533260723429 0  0.4016460890123554 -0.3042863223111857 0  -0.59039693199147 0.7578418819188018 0  0.7276932493917544 -0.3705808024528924 0  0.5222536818742854 -0.4713886230400014 0  -0.5101986527137737 0.8848365765607674 0  0.510560172809238 0.5356013299918891 0  -0.3603569195756083 0.75823710606415 0  0.1967279277813232 0.728226870058472 0  -0.6086880986371127 0.1545624071548516 0  -0.38105366729386 0.1511189987807864 0  -0.2944659463671584 -0.7359061804869591 0  0.5060729154966499 -0.3475227845833823 0  -0.09281616240412746 -0.06197858250969457 0  0.7649739583333334 0.6673177083333334 0  0.7628906249999999 0.890234375 0  -0.2666864184909611 0.2585504071132311 0  0.3635064892129658 0.3878003602709461 0  -0.2339409722222222 0.8901937905844155 0  -0.1718792125974916 -0.8957733325456778 0  0.1001768566329531 0.4023510017391879 0  0.3120260172693757 -0.4540546875576884 0  0.7804062804433681 0.1896628610854537 0  0.4087715451998049 0.187961780041608 0  -0.1584963477271457 0.5451611892421655 0  -0.8926817849258324 0.463022006336401 0  0.2338091473445219 -0.07576267331277289 0  0.08171112182813692 -0.2349087687359925 0  0.04635385178956847 -0.1044635073718474 0  -0.4377391632114205 -0.6448874471423088 0  -0.1907678351227189 0.6480215912813945 0  0.300605946475244 0.4741444604171038 0  -0.2145033720757486 -0.06751709909419711 0  0.6069191921170397 -0.005492331448357812 0  0.0214718770761248 0.6032397936031719 0  0.5476675683364878 0.8992752415326501 0  0.4387475014316537 0.9093708953002239 0  -0.4932997685306436 -0.4381009159993523 0  0.2515197695339056 -0.1791673369138964 0  -0.7291666666666667 -0.6088789682539681 0  -0.9166666666666667 -0.6875 0  0.620579540363709 -0.2122431523583302 0  -0.484950136419973 0.6719440339397442 0  0.2857044415400258 0.0137589173127316 0  -0.8945708364098356 -0.288306105327986 0  0.4043102720140535 0.7842914560451557 0  0.04123256238752064 -0.9026968245801402 0  0.2003676884403109 -0.9091888601740487 0  0.1068775558538842 -0.7373377130403223 0  -0.4804566783514427 -0.1763307203045643 0  0.108286342087769 -0.3993789328997278 0  -0.191883080105361 -0.3640821726430649 0  -0.07025064492006244 0.2984876656890053 0  -0.7039324641409584 0.788312126296613 0  -0.7311286585775438 0.8932502354831682 0  0.5171409396884947 0.1503852691889257 0  0.4229392823658633 -0.003216522184234835 0  -0.5621736087218259 -0.919558629836806 0  -0.626474064879544 -0.7266572613636506 0  0.2446828746617422 0.2867616783302419 0  0.1759429608742923 0.4776611759306416 0  -0.3468240303741654 -0.5260416435617549 0  -0.7465808808425306 0.4069574477998361 0  -0.7819962170660292 0.2802441065650652 0  -0.3742623214119594 -0.8547800509641984 0  0.1014498009713561 0.8506721983266377 0  0.4285217620918213 -0.5230190595570253 0  0.4091738370487775 -0.6256346204225141 0  0.78125 0.46875 0  0.90625 0.53125 0  -0.4791801348852565 0.2553992655702126 0  0.7843318610782772 -0.7086046956885941 0  0.8909728264971901 -0.7355183796514634 0  0.7041908166528879 -0.7830649143180282 0  0.7311821352
[...]
<PointData  Vectors="f_22"> 
<DataArray  type="Float64"  Name="f_22"  NumberOfComponents="3" format="ascii">-2.8486064403393111e-03 -2.8913246570495387e-03 0.0000000000000000e+00  -2.8486064403393111e-03 -2.8913246570495387e-03 0.0000000000000000e+00  -2.8486064403393111e-03 -2.8913246570495387e-03 0.0000000000000000e+00  -2.8486064403393111e-03 -2.8913246570495387e-03 0.0000000000000000e+00  -2.8485954860363351e-03 -2.9131002724364979e-03 0.0000000000000000e+00  -2.8717479571040922e-03 -2.8913121872174057e-03 0.0000000000000000e+00  -2.8485954860363351e-03 -2.9131002724364979e-03 0.0000000000000000e+00  -2.8717479571040922e-03 -2.8913121872174057e-03 0.0000000000000000e+00  -2.8717542625850616e-03 -2.9131152053448110e-03 0.0000000000000000e+00  -2.7048345341047515e-03 -2.8913173174223059e-03 0.0000000000000000e+00  -2.8486025005015026e-03 -2.7468710078111061e-03 0.0000000000000000e+00  -2.8486025005015026e-03 -2.7468710078111061e-03 0.0000000000000000e+00  -3.0155219012350473e-03 -2.8913145861203622e-03 0.0000000000000000e+00  -2.7048345341047515e-03 -2.8913173174223059e-03 0.0000000000000000e+00  -2.8485977354591680e-03 -3.0575642639922174e-03 0.0000000000000000e+00  -3.0155219012350473e-03 -2.8913145861203622e-03 0.0000000000000000e+00  -2.8485977354591680e-03 -3.0575642639922174e-03 0.0000000000000000e+00  -2.7131182745950438e-03 -3.0550840629699782e-03 0.0000000000000000e+00  -3.0132151880124330e-03 -2.7549773306598515e-03 0.0000000000000000e+00  -2.7048415412869241e-03 -2.8000728385031825e-03 0.0000000000000000e+00  -2.9782076460814050e-03 -3.0575655790257613e-03 0.0000000000000000e+00  -2.8378574149180926e-03 -2.7474941448186619e-03 0.0000000000000000e+00  -3.0152184202079861e-03 -2.9482729995834399e-03 0.0000000000000000e+00  -2.7122394424533595e-03 -2.7545346510802135e-03 0.0000000000000000e+00  -2.9992685645429014e-03 -3.0415705504539211e-03 0.0000000000000000e+00  -2.7585116635164904e-03 -3.0086709954596181e-03 0.0000000000000000e+00  -2.9647270259429456e-03 -2.7727634974191238e-03 0.0000000000000000e+00  -2.9661685456496946e-03 -2.8000672971370487e-03 0.0000000000000000e+00  -2.7137996532561851e-03 -2.9630121712385777e-03 0.0000000000000000e+00  -2.7221495953934031e-03 -3.0283758882811616e-03 0.0000000000000000e+00  -2.9859771798573104e-03 -2.7645446893729197e-03 0.0000000000000000e+00  -2.8378599108875822e-03 -3.0450434749246949e-03 0.0000000000000000e+00  -2.7398983896069046e-03 -2.7774547883292209e-03 0.0000000000000000e+00  -2.9691407326824406e-03 -3.0378464990579420e-03 0.0000000000000000e+00  -2.7344203366094365e-03 -2.9230865647031771e-03 0.0000000000000000e+00  -2.9399970854801379e-03 -2.7932102204491975e-03 0.0000000000000000e+00  -2.7352430549246747e-03 -3.0515137089666411e-03 0.0000000000000000e+00  -2.7883725459017304e-03 -2.8104639498639649e-03 0.0000000000000000e+00  -2.9564929681114866e-03 -3.0090181848890065e-03 0.0000000000000000e+00  -3.0081290770310985e-03 -3.0043609067237280e-03 0.0000000000000000e+00  -2.7454768791179015e-03 -2.8434575491986355e-03 0.0000000000000000e+00  -2.8924601076963995e-03 -3.0186378510482820e-03 0.0000000000000000e+00  -2.8486027534889340e-03 -2.7846760510065321e-03 0.0000000000000000e+00  -2.7421576524678409e-03 -2.8913229385245805e-03 0.0000000000000000e+00  -2.9618352522513803e-03 -2.8913184102125396e-03 0.0000000000000000e+00  -2.8486039726430632e-03 -3.0043556065953866e-03 0.0000000000000000e+00  -2.8491867617681122e-03 -2.7827564050703795e-03 0.0000000000000000e+00  -2.7308019965373745e-03 -2.7493776593496872e-03 0.0000000000000000e+00  -3.0158214427386610e-03 -3.0540491050725337e-03 0.0000000000000000e+00  -2.8485964619732345e-03 -3.0197650859530569e-03 0.0000000000000000e+00  -2.8485963533966814e-03 -2.8000720930483475e-03 0.0000000000000000e+00  -2.8486027534889340e-03 -2.7846760510065321e-03 0.0000000000000000e+00  -2.8486039726430632e-03 -3.0043556065953866e-03 0.0000000000000000e+00  -2.7585121183617413e-03 -2.8913156463518837e-03 0.0000000000000000e+00  -2.9782019142412519e-03 -2.8913131082798612e-03 0.0000000000000000e+00  -2.7585121183617413e-03 -2.8913156463518837e-03 0.0000000000000000e+00  -2.8485963533966814e-03 -2.8000720930483475e-03 0.0000000000000000e+00  -2.7421576524678409e-03 -2.8913229385245805e-03 0.0000000000000000e+00  -2.9618352522513803e-03 -2.8913184102125396e-03 0.0000000000000000e+00  -2.8485964619732345e-03 -3.0197650859530569e-03 0.0000000000000000e+00  -2.9782019142412519e-03 -2.8913131082798612e-03 0.0000000000000000e+00  -2.7453143644797784e-03 -2.7570945976012674e-03 0.0000000000000000e+00  -2.9589009145593037e-03 -2.9443875729257218e-03 0.0000000000000000e+00  -3.0094286754330231e-03 -2.8381342835968244e-03 0.0000000000000000e+00  -3.0149840607329548e-03 -2.7593920938901438e-03 0.0000000000000000e+00  -2.9428784927016324e-03 -2.7471433292694789e-03 0.0000000000000000e+00  -2.9521345488264213e-03 -2.7483330148986643e-03 0.0000000000000000e+00  -2.7081282096890298e-03 -3.0381558267012949e-03 0.0000000000000000e+00  -2.7716282039660987e-03 -3.0567769624906746e-03 0.0000000000000000e+00  -2.9692562465788077e-03 -2.9120084695493840e-03 0.0000000000000000e+00  -2.7988453263413128e-03 -2.9824782996604898e-03 0.0000000000000000e+00  -2.7096213947099199e-03 -3.0029656773125622e-03 0.0000000000000000e+00  -2.9987202864562739e-03 -2.8717501447619131e-03 0.0000000000000000e+00  -3.0063921771251501e-03 -2.8164825714038569e-03 0.0000000000000000e+00  -2.7122370878500889e-03 -2.8151157746189180e-03 0.0000000000000000e+00  -2.7684001275977859e-03 -2.7504669938929814e-03 0.0000000000000000e+00  -2.7045097576247194e-03 -2.7508657007602440e-03 0.0000000000000000e+00  -3.0102821360098297e-03 -2.9794565597723805e-03 0.0000000000000000e+00  -2.9497775182921598e-03 -2.9923404106759056e-03 0.0000000000000000e+00  -2.9443097027232763e-03 -3.0571889143444749e-03 0.0000000000000000e+00  -2.7744843737775768e-03 -2.9717273318145975e-03 0.0000000000000000e+00  -2.7665676749678357e-03 -2.8091815249130028e-03 0.0000000000000000e+00  -2.7070086785304223e-03 -2.8751874547568337e-03 0.0000000000000000e+00  -2.8957611407135005e-03 -3.0572154078357598e-03 0.0000000000000000e+00  -2.7492190260093724e-03 -3.0321410695642150e-03 0.0000000000000000e+00  -2.7077568696294422e-03 -3.0570304247114349e-03 0.0000000000000000e+00  -2.7829430416811377e-03 -3.0415644593110090e-03 0.0000000000000000e+00  -2.7655539169660613e-03 -2.9780306820547066e-03 0.0000000000000000e+00  -3.0086724034386965e-03 -2.7464896500387580e-03 0.0000000000000000e+00  -2.9992642840993263e-03 -2.8255916707310732e-03 0.0000000000000000e+00  -2.9355188544964313e-03 -2.8078500843504300e-03 0.0000000000000000e+00  -2.7122324183529328e-03 -2.9591628082360614e-03 0.0000000000000000e+00  -3.0124412953457733e-03 -2.7933010208893924e-03 0.0000000000000000e+00  -2.7093021539856600e-03 -2.9744257448735332e-03 0.0000000000000000e+00  -3.0153375816596613e-03 -3.0494438859091900e-03 0.0000000000000000e+00  -2.8114148148634349e-03 -2.9543395263665249e-03 0.0000000000000000e+00  -2.9116761224904988e-03 -2.8528252644230696e-03 0.0000000000000000e+00  -2.9303113996886109e-03 -2.8301972208668170e-03 0.0000000000000000e+00  -2.9303133724269000e-03 -2.9540518040435506e-03 0.0000000000000000e+00  -2.9107113061280728e-03 -2.7545301456425044e-03 0.0000000000000000e+00  -3.0099915959798831e-03 -3.0144750696408499e-03 0.0000000000000000e+00  -3.0098681288595421e-03 -3.0182765094343123e-03 0.0000000000000000e+00  -2.8815958292096474e-03 -2.9919106864813318e-03 0.0000000000000000e+00  -2.7056767767002108e-03 -3.0402549554009884e-03 0.0000000000000000e+00  -2.7057649631105664e-03 -2.7782442477377310e-03 0.0000000000000000e+00  -2.7210863181988793e-03 -2.8913149514579336e-03 0.0000000000000000e+00  -2.7730053849091070e-03 -2.7491425804267791e-03 0.0000000000000000e+00  -2.9666384821345681e-03 -3.0294462654552505e-03 0.0000000000000000e+00  -2.8485972855693902e-03 -3.0499074353861903e-03 0.0000000000000000e+00  -2.9922660508139519e-03 -2.7483384557816558e-03 0.0000000000000000e+00  -2.8114180950664629e-03 -2.8913094479986537e-03 0.0000000000000000e+00  -2.7834926493331322e-03 -2.8200436925646896e-03 0.0000000000000000e+00  -2.8599822215331742e-03 -2.7785250401011880e-03 0.0000000000000000e+00  -2.7313652486548306e-03 -2.7862093646924403e-03 0.0000000000000000e+00  -2.7122210290613361e-03 -2.8610274810103326e-03 0.0000000000000000e+00  -2.7931725337811616e-03 -2.8884633712236269e-03 0.0000000000000000e+00  -2.8178078450790569e-03 -3.0366790503639075e-03 0.0000000000000000e+00  -2.9958446702985867e-03 -3.0578146700906564e-03 0.0000000000000000e+00  -2.9163747701596728e-03 -3.0458275904166527e-03 0.0000000000000000e+00  -2.8906105907800686e-03 -2.7518795219957258e-03 0.0000000000000000e+00  -2.9116780741047874e-03 -2.7705712240089896e-03 0.0000000000000000e+00  -2.8485976552129568e-03 -3.0415687852322140e-03 0.0000000000000000e+00  -2.8848656794042494e-03 -2.8368341240415317e-03 0.0000000000000000e+00  -2.7058128707936322e-03 -2.9355997130290357e-03 0.0000000000000000e+00  -2.9089291306528832e-03 -2.8913170013244839e-03 0.0000000000000000e+00  -2.9937019045629520e-03 -2.7610299154967443e-03 0.0000000000000000e+00  -2.9822759032242870e-03 -2.7622978727056186e-03 0.0000000000000000e+00  -2.7169730340582234e-03 -2.7514121332077729e-03 0.0000000000000000e+00  -2.8485964143856670e-03 -2.9717228006489816e-03 0.0000000000000000e+00  -2.9223510816282455e-03 -3.0027383447589653e-03 0.0000000000000000e+00  -2.7776333937254670e-03 -3.0294915431394302e-03 0.0000000000000000e+00  -2.7128575805341329e-03 -2.7744518470461722e-03 0.0000000000000000e+00  -2.9869087426499172e-03 -3.0448334366972377e-03 0.0000000000000000e+00  -2.7796930904881588e-03 -3.0579301684120091e-03 0.0000000000000000e+00  -2.7284598958600883e-03 -3.0159828098152860e-03 0.0000000000000000e+00  -3.0082674914974389e-03 -2.9107811450844747e-03 0.0000000000000000e+00  -2.7176955879011540e-03 -2.8219752061149190e-03 0.0000000000000000e+00  -2.9917246190039816e-03 -2.9705358910401321e-03 0.0000000000000000e+00  -2.7767592234865116e-03 -2.7624454292274913e-03 0.0000000000000000e+00  -2.7778540584891750e-03 -2.7911781583720339e-03 0.0000000000000000e+00  -2.7412499375867997e-03 -2.9154473663909751e-03 0.0000000000000000e+00  -2.8485944490869355e-03 -2.8528288989850040e-03 0.0000000000000000e+00  -2.7888983353412445e-03 -2.8837950453539799e-03 0.0000000000000000e+00  -3.0147963743223775e-03 -2.9515963056852088e-03 0.0000000000000000e+00  -2.9847495840360492e-03 -2.9610309715499745e-03 0.0000000000000000e+00  -2.8486022926853850e-03 -2.9515943099687617e-03 0.0000000000000000e+00  -2.9735664794504945e-03 -2.8414066466219004e-03 0.0000000000000000e+00  -2.9129502299360265e-03 -3.0432255876985353e-03 0.0000000000000000e+00  -3.0155219531188696e-03 -2.7966932156466093e-03 0.0000000000000000e+00  -2.7050853518325131e-03 -3.0080576228216998e-03 0.0000000000000000e+00  -2.7381977858879519e-03 -2.9857854997178039e-03 0.0000000000000000e+00  -2.7315187302850009e-03 -2.7782472265996715e-03 0.0000000000000000e+00  -2.8485993531850765e-03 -2.7628643462050645e-03 0.0000000000000000e+00  -2.9197096333533419e-03 -3.0361028002581368e-03 0.0000000000000000e+00  -2.7469821128498339e-03 -2.8507398536165088e-03 0.0000000000000000e+00  -2.9247604099606468e-03 -2.9488850682489907e-03 0.0000000000000000e+00  -2.7363582813853156e-03 -3.0437448915362920e-03 0.0000000000000000e+00  -2.7391023041055261e-03 -3.0533499593601138e-03 0.0000000000000000e+00  -2.8485972855693902e-03 -3.0499074353861903e-03 0.0000000000000000e+00  -2.8307621368262197e-03 -3.0579232742859353e-03 0.0000000000000000e+00  -2.9840773527790572e-03 -2.9497802087958907e-03 0.0000000000000000e+00  -3.0156150451224016e-03 -2.8842108344728809e-03 0.0000000000000000e+00  -2.9971349726420791e-03 -2.9721999378684643e-03 0.0000000000000000e+00  -2.7388970867496835e-03 -2.9543376351492054e-03 0.0000000000000000e+00  -3.0068190863876041e-03 -2.7857516619692090e-03 0.0000000000000000e+00  -2.8486061356567324e-03 -2.8327109056894249e-03 0.0000000000000000e+00  -2.9089291306528832e-03 -2.8913170013244839e-03 0.0000000000000000e+00  -2.7900442778866414e-03 -2.8913249569196380e-03 0.0000000000000000e+00  -2.8486022926853850e-03 -2.9515943099687617e-03 0.0000000000000000e+00  -2.8687259919210873e-03 -2.8300645746940738e-03 0.0000000000000000e+00  -2.9121425691135704e-03 -2.7830534631609919e-03 0.0000000000000000e+00  -2.7893374469573759e-03 -2.7741769559154177e-03 0.0000000000000000e+00  -2.7306424639827339e-03 -2.7465059370503282e-03 0.0000000000000000e+00  -2.7886189185244905e-03 -2.7483956533003702e-03 0.0000000000000000e+00  -3.0085411749066313e-03 -3.0579351973864370e-03 0.0000000000000000e+00  -2.8486061356567324e-03 -2.8327109056894249e-03 0.0000000000000000e+00  -2.7900442778866414e-03 -2.8913249569196380e-03 0.0000000000000000e+00  -3.0147684830616546e-03 -3.0237494776057571e-03 0.0000000000000000e+00  -2.7111638121467036e-03 -2.7630315215545101e-03 0.0000000000000000e+00  -2.7144712542276194e-03 -2.8209922020256350e-03 0.0000000000000000e+00  -2.8282721179064239e-03 -2.7534680266835397e-03 0.0000000000000000e+00  -2.8932985891104083e-03 -2.7537935846620016e-03 0.0000000000000000e+00  -2.9316188547531112e-03 -2.8718398637080614e-03 0.0000000000000000e+00  -2.9106720110468201e-03 -2.9149727989282149e-03 0.0000000000000000e+00  -2.8717392426308485e-03 -2.9516436881239310e-03 0.0000000000000000e+00  -2.8485993531850765e-03 -2.7628643462050645e-03 0.0000000000000000e+00  -2.8485995958645914e-03 -2.7545314186641781e-03 0.0000000000000000e+00  -2.9303095823350876e-03 -2.8913138323063158e-03 0.0000000000000000e+00  -2.8485944490869355e-03 -2.8528288989850040e-03 0.0000000000000000e+00  -2.7210863181988793e-03 -2.8913149514579336e-03 0.0000000000000000e+00  -2.8114180950664629e-03 -2.8913094479986537e-03 0.0000000000000000e+00  -2.7122349182304149e-03 -2.8913164429081148e-03 0.0000000000000000e+00  -2.8485976552129568e-03 -3.0415687852322140e-03 0.0000000000000000e+00  -2.8485964143856670e-03 -2.9717228006489816e-03 0.0000000000000000e+00  -2.8485995958645914e-03 -2.7545314186641781e-03 0.0000000000000000e+00  -2.7122349182304149e-03 -2.8913164429081148e-03 0.0000000000000000e+00  -2.9303095823350876e-03 -2.8913138323063158e-03 0.0000000000000000e+00  -3.0081255939019961e-03 -2.8913154502572913e-03 0.0000000000000000e+00  -2.9992673708961306e-03 -2.8913196736341487e-03 0.0000000000000000e+00  -3.0081255939019961e-03 -2.8913154502572913e-03 0.0000000000000000e+00  -2.9992673708961306e-03 -2.8913196736341487e-03 0.0000000000000000e+00  -3.0005422836671836e-03 -3.0398775450643841e-03 0.0000000000000000e+00  -2.9599650894881679e-03 -2.8817582890756643e-03 0.0000000000000000e+00  -2.9775250773628244e-03 -2.8335287646167749e-03 0.0000000000000000e+00  -2.9103823584457900e-03 -2.9530397037273964e-03 0.0000000000000000e+00  -2.9991409791836638e-03 -2.7668254227228841e-03 0.0000000000000000e+00  -3.0128711193566529e-03 -2.7466355343338674e-03 0.0000000000000000e+00  -3.0109156478654105e-03 -2.7653021088493140e-03 0.0000000000000000e+00  -2.7923862362828240e-03 -2.7721598974241087e-03 0.0000000000000000e+00  -2.7045371025798907e-03 -2.8339369398554947e-03 0.0000000000000000e+00  -3.0136844885374913e-03 -2.7605350240672870e-03 0.0000000000000000e+00  -2.9249628240060311e-03 -3.0444889960936656e-03 0.0000000000000000e+00  -2.7817803490972023e-03 -3.0520279863938044e-03 0.0000000000000000e+00  -2.8384404948774877e-03 -3.0003873402270329e-03 0.0000000000000000e+00  -3.0052795069680865e-03 -3.0469954014570449e-03 0.0000000000000000e+00  -2.7044789077546312e-03 -2.7481691083950594e-03 0.0000000000000000e+00  -2.7063101805407989e-03 -3.0412861002276871e-03 0.0000000000000000e+00  -2.7055590861783285e-03 -3.0034770853621358e-03 0.0000000000000000e+00  -2.9652212558387574e-03 -3.0442264354481312e-03 0.0000000000000000e+00  -2.7399553792777629e-03 -3.0535156732523425e-03 0.0000000000000000e+00  -2.9588876211243853e-03 -2.7500408875238492e-03 0.0000000000000000e+00  -2.7220684609920065e-03 -3.0123242053528938e-03 0.0000000000000000e+00  -2.7064954612606024e-03 -3.0564143486335365e-03 0.0000000000000000e+00  -2.9043272290500501e-03 -2.7466009323524375e-03 0.0000000000000000e+00  -3.0132616907634557e-03 -3.0571195393371306e-03 0.0000000000000000e+00  -2.9587346895816585e-03 -2.7662042553730274e-03 0.0000000000000000e+00  -2.9696616871612899e-03 -3.0011081906247488e-03 0.0000000000000000e+00  -2.9429103977634498e-03 -2.7521859432343226e-03 0.0000000000000000e+00  -2.9414827776468779e-03 -2.7615661103041417e-03 0.0000000000000000e+00  -2.7377707097679545e-03 -2.7846998098599450e-03 0.0000000000000000e+00  -2.7276481243376843e-03 -3.0573188762322693e-03 0.0000000000000000e+00  -2.8414818248888142e-03 -2.8679968773888350e-03 0.0000000000000000e+00  -2.9887424275678964e-03 -2.9987157141673224e-03 0.0000000000000000e+00  -2.9017943215161866e-03 -2.9995139324009460e-03 0.0000000000000000e+00  -2.9808897951605672e-03 -2.7940535776089241e-03 0.0000000000000000e+00  -3.0099714094774530e-03 -3.0480358184249382e-03 0.0000000000000000e+00  -2.9017996268735128e-03 -2.8061271109650265e-03 0.0000000000000000e+00  -2.7992555340669210e-03 -2.8316898689500223e-03 0.0000000000000000e+00  -3.0117659135200253e-03 -2.9606699623868273e-03 0.0000000000000000e+00  -2.7081111713919202e-03 -3.0373170786777465e-03 0.0000000000000000e+00  -2.9569382369278542e-03 -2.9926723617240943e-03 0.0000000000000000e+00  -2.9562952681346801e-03 -3.0543110023805789e-03 0.0000000000000000e+00  -3.0123143909373735e-03 -2.8375902366413359e-03 0.0000000000000000e+00  -3.0158140231612892e-03 -2.8405420406922397e-03 0.0000000000000000e+00  -2.8348063275433016e-03 -3.0144279178473611e-03 0.0000000000000000e+00  -2.7642277192152327e-03 -2.9522034514208378e-03 0.0000000000000000e+00  -2.8210719492352400e-03 -2.9355461108348654e-03 0.0000000000000000e+00  -2.7155715083654495e-03 -2.7519552903348668e-03 0.0000000000000000e+00  -2.9938239913334581e-03 -2.8235796568717420e-03 0.0000000000000000e+00  -3.0159513869570725e-03 -3.0344611149386060e-03 0.0000000000000000e+00  -2.8387957668971234e-03 -2.8137966294096493e-03 0.0000000000000000e+00  -2.8690676997213905e-03 -3.0452839401122968e-03 0.0000000000000000e+00  -3.0037260325561760e-03 -2.9235571419868843e-03 0.0000000000000000e+00  -2.8975131525647620e-03 -3.0542011347291964e-03 0.0000000000000000e+00  -2.8926976418882093e-03 -3.0567811334188031e-03 0.0000000000000000e+00  -2.7100068236373359e-03 -2.7471405275618782e-03 0.0000000000000000e+00  -2.7870724946575912e-03 -3.0202545375978751e-03 0.0000000000000000e+00  -2.7099601098603903e-03 -2.7782478265168629e-03 0.0000000000000000e+00  -2.7245919732816178e-03 -2.8514936033432674e-03 0.0000000000000000e+00  -2.7731909685317314e-03 -3.0425101829799055e-03 0.0000000000000000e+00  -2.9874388433647099e-03 -2.7475553595378761e-03 0.0000000000000000e+00  -2.8784591683898224e-03 -3.0304667555659387e-03 0.0000000000000000e+00  -2.7450798871415244e-03 -2.8413943379832014e-03 0.0000000000000000e+00  -2.9485584357655226e-03 -3.0538244822857804e-03 0.0000000000000000e+00  -2.8023828117114411e-03 -2.9330736958843948e-03 0.0000000000000000e+00  -2.8053470071164729e-03 -3.0024757023270855e-03 0.0000000000000000e+00  -2.7381964307683559e-03 -2.9636831414570656e-03 0.0000000000000000e+00  -2.7883093352287372e-03 -2.7478350215207779e-03 0.0000000000000000e+00  -2.7161296450345981e-03 -2.9643214494415727e-03 0.0000000000000000e+00  -2.7235818243580502e-03 -2.8231197543520515e-03 0.0000000000000000e+00  -2.9922661612637766e-03 -2.8788457465367331e-03 0.0000000000000000e+00  -2.9469217097586047e-03 -2.7711693843384651e-03 0.0000000000000000e+00  -2.9003660535848806e-03 -2.7788286247138433e-03 0.0000000000000000e+00  -2.9411799504054656e-03 -3.0567520822005552e-03 0.0000000000000000e+00  -2.8701808873748593e-03 -3.0556461238453172e-03 0.0000000000000000e+00  -2.8101330529983976e-03 -2.7477135095151616e-03 0.0000000000000000e+00  -2.7350293729385385e