<?xml version="1.0"?>
<VTKFile type="UnstructuredGrid"  version="0.1"  >
<UnstructuredGrid>
<Piece  NumberOfPoints="1380" NumberOfCells="2630">
<Points>
<DataArray  type="Float64"  NumberOfComponents="3"  format="ascii">-1 -1 0  1 -1 0  1 1 0  -1 1 0  0 -1 0  1 0 0  0 1 0  -1 0 0  0 0 0  -1 -0.5 0  -0.5 -1 0  -0.5 1 0  -1 0.5 0  1 -0.5 0  0.5 -1 0  1 0.5 0  0.5 1 0  0.4166666666666666 -0.4166666666666667 0  -0.4166666666666667 0.4166666666666667 0  -0.25 -0.5 0  0.5 0.25 0  -0.4861111111111112 -0.06944444444444445 0  0.0732758620689655 0.507183908045977 0  -0.625 -0.625 0  0.625 0.625 0  0.7380952380952381 -0.25 0  -0.7099116161616161 0.2105429292929293 0  -0.25 0.7380952380952381 0  0.105392156862745 -0.6348039215686275 0  0.6770833333333334 -0.6770833333333333 0  -0.6770833333333334 0.6770833333333334 0  0.3472222222222222 -0.06944444444444446 0  -0.7264957264957265 -0.3044871794871795 0  0.3141940982507127 0.7297313660835709 0  0.02049587951122483 -0.3227479397556124 0  -0.2690972222222223 0.1475694444444444 0  0.3859500089908372 -0.7274430156831472 0  -0.2228477945123298 -0.1761765495248019 0  0.2182539682539683 0.1884920634920635 0  0.75 0.375 0  -0.145442219440968 -0.7602211097204841 0  0.7088913690476191 0.0427827380952381 0  -0.75 -1 0  -1 -0.75 0  1 0.75 0  0.75 1 0  -0.7439982703698937 -0.04614153195464455 0  -0.4609235096577606 -0.3356498099556895 0  0.4063134471431929 0.4895621842856023 0  0.25 -1 0  -0.25 -1 0  -0.75 1 0  0.75 -1 0  -1 -0.25 0  -1 0.25 0  1 -0.25 0  -0.25 1 0  1 -0.75 0  -1 0.75 0  0.25 1 0  1 0.25 0  -0.4041423272138783 -0.7597141090712928 0  0.06500839607911253 0.7578103030529481 0  -0.1572801182352047 0.3838997021864289 0  -0.6528005242053915 0.4409494757946086 0  -0.4930160984848485 0.1544744318181818 0  -0.4732142857142858 0.7752976190476191 0  0.6398809523809523 -0.4538690476190476 0  0.5166054117396399 -0.2161233620965164 0  -0.002273787244753427 0.2232363985975174 0  0.1500564496765022 -0.1524955293952667 0  0.2016720420046758 -0.4410343282803009 0  -0.08495178036419618 0.6274139771124571 0  -0.8367311471133162 0.3642591720794645 0  -0.8333333333333334 -0.625 0  -0.594323836800685 -0.8231079456002283 0  -0.4466957714776065 -0.5349126855671806 0  0.8125 0.5625 0  0.78125 0.78125 0  0.5091392650016769 0.7947130883338923 0  0.125 -0.8382681931833136 0  -0.8184523809523809 -0.8184523809523809 0  -0.07781530426104531 -0.5819319697006881 0  0.5085055196703295 0.04967610411902112 0  0.2918471072074933 -0.276017202318847 0  0.5120763537765269 -0.5898771553229597 0  0.625 -0.8585349462365591 0  0.8158532234335381 -0.8158532234335381 0  -0.5198088446315396 0.5739411553684605 0  -0.8585349462365591 0.625 0  -0.8150493805516597 0.8156205699829586 0  0.8585349462365591 -0.625 0  -0.2688268348649726 0.5439331383603209 0  0.8242100426758139 -0.4436043596336612 0  0.5833756314287952 0.4479378157143976 0  0.8690476190476191 -0.125 0  -0.125 0.8690476190476191 0  -0.8692745600729823 0.125 0  0.8696725120759167 0.125 0  -0.625 0.8711516477451908 0  0.2339522463269718 0.3879558377955778 0  0.2453709502295031 0.5655822922838026 0  0.1730610651637797 0.02021709580868947 0  0.3245402594056757 -0.5644672020485209 0  -0.7291666666666666 -0.4816595441595442 0  -1 -0.375 0  -0.5811140848639904 -0.2127276307675001 0  0.673332592838314 0.2158348143233718 0  0.375 1 0  -0.5714768890989919 0.2985103444040069 0  -1 -0.125 0  -0.8453692574786325 -0.1875 0  -0.3144549134065865 -0.02408675326008025 0  -0.2898414972096258 -0.3336092734780093 0  -0.1075052092206287 -0.4224330421314983 0  -0.05043970703604117 -0.1652278959397459 0  0.6459672950297897 -0.1113415301525317 0  0.4645210271029513 0.6398480556579343 0  0.3512863754411909 0.0937979496253573 0  -0.6063160985568274 0.03891469652249891 0  -0.3428819444444445 0.8690476190476191 0  0.625 1 0  -0.1602164796159982 0.02697860906625157 0  0.04648110064133829 -0.4808416424239687 0  1 0.875 0  -0.3836102479201657 0.6484936449177356 0  -0.3776011723096096 0.263078478984336 0  -0.6024978259969829 -0.3949628096211138 0  0.125 1 0  0.2010781308272777 0.8456221018461906 0  0.2822509696388829 -0.845902544691141 0  -0.3285533674953515 -0.6289773550938936 0  0.3461306793221754 0.278777492464833 0  0.4737475672408696 -0.8508448959534423 0  0.2384632828836344 -0.7029523187242811 0  -0.004777287059791593 0.3759269695907358 0  -0.8499735021850066 -0.3912320205328522 0  0.1222536293721587 0.2963971539625205 0  -0.3769456520999688 -0.203572526805711 0  -0.2749617205755651 -0.8464290792698902 0  0.004805888512766143 -0.747174355248311 0  -0.125 -1 0  -0.06001061822252458 -0.8724007765244854 0  0.875 0.4375 0  0.854421179608893 0.271342359217786 0  0.875 1 0  -0.1499861095763589 0.2358309656934888 0  0.3381943639137225 0.8663061796405532 0  -0.7853090110442228 0.4998412775277108 0  0.7398165998560814 -0.5535192694951373 0  0.1580042122341573 -0.3100246140259917 0  -0.7291666666666667 -0.7142857142857142 0  -0.375 -1 0  0.6483368386154684 0.8514905990110488 0  -0.1295370103291928 -0.2826118305021242 0  0.07458201853700455 0.1123894386563915 0  0.6146465857036327 -0.3161203659316075 0  0.5551898493894731 -0.740296118159085 0  0.375 -1 0  0.482702798370208 -0.084133350091034 0  0.87890625 0.68359375 0  -0.05917195534525846 0.4971092425697621 0  0.1260710309213975 0.6343750312956699 0  0.8690476190476191 -0.3077066815262848 0  -0.2912010232560567 0.3668168386732139 0  -0.875 1 0  -1 0.875 0  1 -0.875 0  0.875 -1 0  -0.8689564281364567 -0.006189266075306407 0  -0.7449425635110547 0.08458938160051771 0  -0.7150266761936593 -0.1739444581417552 0  -0.5260034831318311 -0.711099823962112 0  -0.4724626808827322 -0.871722230709409 0  0.4734436795977052 0.377714794132168 0  -0.875 -1 0  -1 -0.875 0  0.6927189078571988 0.5156567235715964 0  -0.3742497615796874 -0.4296005251260107 0  -0.1969436423297711 -0.6387157229772615 0  -0.6179496409766825 -0.08933356056510935 0  -0.424405057115988 0.04452428810878029 0  -0.08479048335844169 0.1279607007132633 0  0.003830300099055113 0.8712085230656206 0  0.8748778838820267 -1.379218479898026e-05 0  -0.375 1 0  -0.625 1 0  1 0.125 0  -0.125 1 0  1 -0.375 0  1 -0.125 0  1 -0.625 0  0.625 -1 0  0.125 -1 0  -0.625 -1 0  -1 -0.625 0  -1 0.125 0  -1 0.375 0  -1 0.625 0  1 0.375 0  1 0.625 0  0.6325660748712082 0.3335187599557389 0  -0.06420945895056573 0.7549874027425891 0  -0.8769015540914771 0.2478802253893416 0  0.871875 0.871875 0  -0.6868091492840067 0.3270978624973681 0  -0.5363597469565949 0.412994850055505 0  -0.6803734992638302 0.5574295000651103 0  -0.7076253581162534 -0.8803439094224437 0  -0.8778089002295137 -0.5106896447504627 0  -0.3860184984222981 0.530566778071246 0  0.6109900617121508 0.1128453077697081 0  0.3896945134930274 -0.1915382873255086 0  0.7605656944697778 -0.06822134873122943 0  0.3576151269893478 0.5948388411612135 0  -0.5689902680792265 -0.5143596830118065 0  0.6262446286847614 -0.5735657901943212 0  0.2030558252325225 -0.5625263842513452 0  0.6123273142928579 0.7407533260723429 0  0.4016460890123554 -0.3042863223111857 0  -0.59039693199147 0.7578418819188018 0  0.7276932493917544 -0.3705808024528924 0  0.5222536818742854 -0.4713886230400014 0  -0.5101986527137737 0.8848365765607674 0  0.510560172809238 0.5356013299918891 0  -0.3603569195756083 0.75823710606415 0  0.1967279277813232 0.728226870058472 0  -0.6086880986371127 0.1545624071548516 0  -0.38105366729386 0.1511189987807864 0  -0.2944659463671584 -0.7359061804869591 0  0.5060729154966499 -0.3475227845833823 0  -0.09281616240412746 -0.06197858250969457 0  0.7649739583333334 0.6673177083333334 0  0.7628906249999999 0.890234375 0  -0.2666864184909611 0.2585504071132311 0  0.3635064892129658 0.3878003602709461 0  -0.2339409722222222 0.8901937905844155 0  -0.1718792125974916 -0.8957733325456778 0  0.1001768566329531 0.4023510017391879 0  0.3120260172693757 -0.4540546875576884 0  0.7804062804433681 0.1896628610854537 0  0.4087715451998049 0.187961780041608 0  -0.1584963477271457 0.5451611892421655 0  -0.8926817849258324 0.463022006336401 0  0.2338091473445219 -0.07576267331277289 0  0.08171112182813692 -0.2349087687359925 0  0.04635385178956847 -0.1044635073718474 0  -0.4377391632114205 -0.6448874471423088 0  -0.1907678351227189 0.6480215912813945 0  0.300605946475244 0.4741444604171038 0  -0.2145033720757486 -0.06751709909419711 0  0.6069191921170397 -0.005492331448357812 0  0.0214718770761248 0.6032397936031719 0  0.5476675683364878 0.8992752415326501 0  0.4387475014316537 0.9093708953002239 0  -0.4932997685306436 -0.4381009159993523 0  0.2515197695339056 -0.1791673369138964 0  -0.7291666666666667 -0.6088789682539681 0  -0.9166666666666667 -0.6875 0  0.620579540363709 -0.2122431523583302 0  -0.484950136419973 0.6719440339397442 0  0.2857044415400258 0.0137589173127316 0  -0.8945708364098356 -0.288306105327986 0  0.4043102720140535 0.7842914560451557 0  0.04123256238752064 -0.9026968245801402 0  0.2003676884403109 -0.9091888601740487 0  0.1068775558538842 -0.7373377130403223 0  -0.4804566783514427 -0.1763307203045643 0  0.108286342087769 -0.3993789328997278 0  -0.191883080105361 -0.3640821726430649 0  -0.07025064492006244 0.2984876656890053 0  -0.7039324641409584 0.788312126296613 0  -0.7311286585775438 0.8932502354831682 0  0.5171409396884947 0.1503852691889257 0  0.4229392823658633 -0.003216522184234835 0  -0.5621736087218259 -0.919558629836806 0  -0.626474064879544 -0.7266572613636506 0  0.2446828746617422 0.2867616783302419 0  0.1759429608742923 0.4776611759306416 0  -0.3468240303741654 -0.5260416435617549 0  -0.7465808808425306 0.4069574477998361 0  -0.7819962170660292 0.2802441065650652 0  -0.3742623214119594 -0.8547800509641984 0  0.1014498009713561 0.8506721983266377 0  0.4285217620918213 -0.5230190595570253 0  0.4091738370487775 -0.6256346204225141 0  0.78125 0.46875 0  0.90625 0.53125 0  -0.4791801348852565 0.2553992655702126 0  0.7843318610782772 -0.7086046956885941 0  0.8909728264971901 -0.7355183796514634 0  0.7041908166528879 -0.7830649143180282 0  0.7311821352
[...]
<PointData  Vectors="f_22"> 
<DataArray  type="Float64"  Name="f_22"  NumberOfComponents="3" format="ascii">-1.6533808194839815e-02 -1.5291168175157860e-02 0.0000000000000000e+00  -1.6533808194839815e-02 -1.5291168175157860e-02 0.0000000000000000e+00  -1.6533808194839815e-02 -1.5291168175157860e-02 0.0000000000000000e+00  -1.6533808194839815e-02 -1.5291168175157860e-02 0.0000000000000000e+00  -1.6356187376589768e-02 -2.2271122132455232e-02 0.0000000000000000e+00  -2.3172466339878215e-02 -1.5110114768746050e-02 0.0000000000000000e+00  -1.6356187376589768e-02 -2.2271122132455232e-02 0.0000000000000000e+00  -2.3172466339878215e-02 -1.5110114768746050e-02 0.0000000000000000e+00  -2.3353927195841111e-02 -2.2455993927578133e-02 0.0000000000000000e+00  -2.2993434001910462e-03 -1.5189544958805654e-02 0.0000000000000000e+00  -1.6433614293891202e-02 -1.2747673944370943e-03 0.0000000000000000e+00  -1.6433614293891202e-02 -1.2747673944370943e-03 0.0000000000000000e+00  -3.7417677965960544e-02 -1.5186896972151849e-02 0.0000000000000000e+00  -2.2993434001910462e-03 -1.5189544958805654e-02 0.0000000000000000e+00  -1.6432990662523822e-02 -3.6298498842082361e-02 0.0000000000000000e+00  -3.7417677965960544e-02 -1.5186896972151849e-02 0.0000000000000000e+00  -1.6432990662523822e-02 -3.6298498842082361e-02 0.0000000000000000e+00  -3.7159932099053760e-03 -3.6553946458462577e-02 0.0000000000000000e+00  -3.7627271492903160e-02 -2.7367008729252897e-03 0.0000000000000000e+00  -2.3636699961553432e-03 -8.9971482090042808e-03 0.0000000000000000e+00  -3.4742433949056115e-02 -3.6351501115933355e-02 0.0000000000000000e+00  -1.9415980373378994e-02 -1.4740072998124451e-03 0.0000000000000000e+00  -3.7349988777299115e-02 -2.6292853903593563e-02 0.0000000000000000e+00  -2.4298770545343597e-03 -1.3356574371827829e-03 0.0000000000000000e+00  -3.4856638816867416e-02 -3.3673111953290369e-02 0.0000000000000000e+00  -9.7734326586456227e-03 -2.9075646935989314e-02 0.0000000000000000e+00  -3.3261536103944923e-02 -2.6573742444704188e-03 0.0000000000000000e+00  -3.0301771619797198e-02 -8.8575228447884524e-03 0.0000000000000000e+00  -2.3863144167598732e-03 -2.7818424586803846e-02 0.0000000000000000e+00  -3.1035242573395809e-03 -3.1699446912420388e-02 0.0000000000000000e+00  -3.2903054299659451e-02 -1.9808299362195194e-03 0.0000000000000000e+00  -1.9418874640733361e-02 -3.5992991418949447e-02 0.0000000000000000e+00  -7.4908689784411609e-03 -3.2175778634141697e-03 0.0000000000000000e+00  -3.0810477786267082e-02 -3.5391709807241226e-02 0.0000000000000000e+00  -6.7972659577275772e-03 -2.3535829092878296e-02 0.0000000000000000e+00  -3.0789980401650874e-02 -8.0925913959557349e-03 0.0000000000000000e+00  -4.2624288050590866e-03 -3.6366277179154118e-02 0.0000000000000000e+00  -1.3614784932043792e-02 -1.0329934494524391e-02 0.0000000000000000e+00  -3.2570418485006851e-02 -3.2728213491472147e-02 0.0000000000000000e+00  -3.7414475346940056e-02 -2.8667319756675386e-02 0.0000000000000000e+00  -5.3342796285071976e-03 -1.4240065416747138e-02 0.0000000000000000e+00  -2.5548739058287671e-02 -3.0425108274272975e-02 0.0000000000000000e+00  -1.6499686362299027e-02 -3.9460228853218492e-03 0.0000000000000000e+00  -5.1061382138144337e-03 -1.5256897211097927e-02 0.0000000000000000e+00  -2.9917340743807527e-02 -1.5255332898787206e-02 0.0000000000000000e+00  -1.6500348900779852e-02 -2.8686406626976867e-02 0.0000000000000000e+00  -2.0646491817989013e-02 -3.6377384715833004e-03 0.0000000000000000e+00  -6.3514361907063789e-03 -1.9282096652083740e-03 0.0000000000000000e+00  -3.7596950873127963e-02 -3.6659150898392306e-02 0.0000000000000000e+00  -1.6376925116935424e-02 -3.3640959113562859e-02 0.0000000000000000e+00  -1.6377549083490039e-02 -8.8645292639889673e-03 0.0000000000000000e+00  -1.6499686362299027e-02 -3.9460228853218492e-03 0.0000000000000000e+00  -1.6500348900779852e-02 -2.8686406626976867e-02 0.0000000000000000e+00  -9.7821081983431243e-03 -1.5132865686041292e-02 0.0000000000000000e+00  -3.4621782262303336e-02 -1.5130354947042199e-02 0.0000000000000000e+00  -9.7821081983431243e-03 -1.5132865686041292e-02 0.0000000000000000e+00  -1.6377549083490039e-02 -8.8645292639889673e-03 0.0000000000000000e+00  -5.1061382138144337e-03 -1.5256897211097927e-02 0.0000000000000000e+00  -2.9917340743807527e-02 -1.5255332898787206e-02 0.0000000000000000e+00  -1.6376925116935424e-02 -3.3640959113562859e-02 0.0000000000000000e+00  -3.4621782262303336e-02 -1.5130354947042199e-02 0.0000000000000000e+00  -5.3950154585294258e-03 -3.1599611411122904e-03 0.0000000000000000e+00  -2.9445460988530729e-02 -2.5796138562155405e-02 0.0000000000000000e+00  -3.7467107429599161e-02 -1.3640193151511142e-02 0.0000000000000000e+00  -3.7661696076865703e-02 -1.5081216428829501e-03 0.0000000000000000e+00  -3.1040619537783996e-02 -1.3241809217993021e-03 0.0000000000000000e+00  -2.8555584876036901e-02 -1.5808717076599252e-03 0.0000000000000000e+00  -2.9005912667773239e-03 -3.3001197075492421e-02 0.0000000000000000e+00  -1.1442959842654634e-02 -3.6020769938678476e-02 0.0000000000000000e+00  -3.3856621130452270e-02 -2.2314273227434806e-02 0.0000000000000000e+00  -1.4845896209870950e-02 -2.9984061836721677e-02 0.0000000000000000e+00  -3.1955591462956281e-03 -3.2016026920189955e-02 0.0000000000000000e+00  -3.4638986927143636e-02 -1.7580204481332316e-02 0.0000000000000000e+00  -3.7189027048945271e-02 -6.9776001831751682e-03 0.0000000000000000e+00  -2.4110177418928879e-03 -7.0127697975918548e-03 0.0000000000000000e+00  -7.7781077375249320e-03 -1.0654943032557297e-03 0.0000000000000000e+00  -2.1214198364024506e-03 -2.2021973917145626e-03 0.0000000000000000e+00  -3.6473004308450796e-02 -2.5591183974257244e-02 0.0000000000000000e+00  -2.8441977711375591e-02 -2.7203905729586413e-02 0.0000000000000000e+00  -2.7739772785885655e-02 -3.6237757930087190e-02 0.0000000000000000e+00  -8.2378279188070232e-03 -2.8713997654253007e-02 0.0000000000000000e+00  -7.6107777296296761e-03 -6.4205247260801417e-03 0.0000000000000000e+00  -2.0107116720652551e-03 -1.8027017714781848e-02 0.0000000000000000e+00  -2.5972774051276324e-02 -3.6200381166721328e-02 0.0000000000000000e+00  -8.6699629865501539e-03 -3.4851305982180038e-02 0.0000000000000000e+00  -1.9601811503243698e-03 -3.6058135682124251e-02 0.0000000000000000e+00  -9.2091518444406273e-03 -3.3577574480203314e-02 0.0000000000000000e+00  -7.4366711302678865e-03 -2.5371005591137082e-02 0.0000000000000000e+00  -3.6060010077578107e-02 -1.0085356979453680e-03 0.0000000000000000e+00  -3.4760195273040029e-02 -8.0005374960862574e-03 0.0000000000000000e+00  -2.6624837761866586e-02 -6.2150810901603210e-03 0.0000000000000000e+00  -2.3307557624330289e-03 -2.3039168731198836e-02 0.0000000000000000e+00  -3.6699187422880100e-02 -8.0179674789210981e-03 0.0000000000000000e+00  -3.1197739997337699e-03 -2.4827795709403081e-02 0.0000000000000000e+00  -3.7810265958427507e-02 -3.4844215677317505e-02 0.0000000000000000e+00  -1.6196954884229928e-02 -2.2403527602448178e-02 0.0000000000000000e+00  -2.3654508810514556e-02 -1.5302589400020482e-02 0.0000000000000000e+00  -2.9641748205299242e-02 -8.4105439622125452e-03 0.0000000000000000e+00  -2.9662863111513026e-02 -2.2407717057174731e-02 0.0000000000000000e+00  -2.3601343800428824e-02 -1.2402045633067263e-03 0.0000000000000000e+00  -3.7586602884932978e-02 -3.3258548210234710e-02 0.0000000000000000e+00  -3.6391712538324086e-02 -3.3600258867432731e-02 0.0000000000000000e+00  -2.4453798159292422e-02 -3.0985810883363031e-02 0.0000000000000000e+00  -1.8896396146310483e-03 -3.5508626157360286e-02 0.0000000000000000e+00  -2.5893152049149197e-03 -3.3358774786794317e-03 0.0000000000000000e+00  -4.9016928208877797e-03 -1.5157817789467669e-02 0.0000000000000000e+00  -1.1689314065672016e-02 -9.7825311071458691e-04 0.0000000000000000e+00  -3.3537344096096849e-02 -3.1917581224497310e-02 0.0000000000000000e+00  -1.6401648478091335e-02 -3.6305014350073953e-02 0.0000000000000000e+00  -3.5963973436427786e-02 -8.3739687356600091e-04 0.0000000000000000e+00  -1.6197259162208325e-02 -1.5115794657269721e-02 0.0000000000000000e+00  -1.2888402615240761e-02 -7.4057366347872857e-03 0.0000000000000000e+00  -2.1989810163777518e-02 -6.1959622540423307e-03 0.0000000000000000e+00  -6.4321020320153629e-03 -7.2384570827649835e-03 0.0000000000000000e+00  -3.6893651695415089e-03 -1.6415801097709529e-02 0.0000000000000000e+00  -1.4189782798662644e-02 -1.9643414913320952e-02 0.0000000000000000e+00  -1.6990652409323955e-02 -3.2827578341325742e-02 0.0000000000000000e+00  -3.4368984958558634e-02 -3.6654177649853840e-02 0.0000000000000000e+00  -2.8281931795353630e-02 -3.6088007805689673e-02 0.0000000000000000e+00  -2.5356553801533118e-02 -1.0310302568981103e-03 0.0000000000000000e+00  -2.3656221088045510e-02 -4.9930057725586447e-03 0.0000000000000000e+00  -1.6467219076616003e-02 -3.3622260859490452e-02 0.0000000000000000e+00  -2.4816506413570926e-02 -1.3554078744724057e-02 0.0000000000000000e+00  -2.5306747092012703e-03 -2.4882115615115417e-02 0.0000000000000000e+00  -2.3497572184666474e-02 -1.5280355251819628e-02 0.0000000000000000e+00  -3.3897152312848032e-02 -3.6385632018574106e-03 0.0000000000000000e+00  -3.5056441770080535e-02 -3.8727243071338584e-03 0.0000000000000000e+00  -4.4209102248287165e-03 -1.1196311049273034e-03 0.0000000000000000e+00  -1.6361429433813333e-02 -2.8711721533044382e-02 0.0000000000000000e+00  -2.4991683617175478e-02 -3.1977056978399955e-02 0.0000000000000000e+00  -8.5680257359089483e-03 -3.4548418316332333e-02 0.0000000000000000e+00  -2.4367969845302158e-03 -5.6392533041419012e-03 0.0000000000000000e+00  -3.5607137007575507e-02 -3.6032853981929083e-02 0.0000000000000000e+00  -8.8177774077475134e-03 -3.6488149757566792e-02 0.0000000000000000e+00  -3.6223921123613848e-03 -3.3261310463452161e-02 0.0000000000000000e+00  -3.7424603013869649e-02 -2.2145644240056626e-02 0.0000000000000000e+00  -4.4638351416843953e-03 -7.6653861569163408e-03 0.0000000000000000e+00  -3.6050420822774841e-02 -2.8743364892548279e-02 0.0000000000000000e+00  -1.2189929283147109e-02 -3.9933101746456555e-03 0.0000000000000000e+00  -8.6796749610705860e-03 -7.7698814504173911e-03 0.0000000000000000e+00  -4.8781853751040487e-03 -2.2572680193520225e-02 0.0000000000000000e+00  -1.6361610337636015e-02 -1.5302700072660068e-02 0.0000000000000000e+00  -9.7929434921020918e-03 -1.8942811131041255e-02 0.0000000000000000e+00  -3.7760534784651821e-02 -2.2190644355723741e-02 0.0000000000000000e+00  -3.5296422575596217e-02 -2.3281100880857931e-02 0.0000000000000000e+00  -1.6524317575483574e-02 -2.2247275086126991e-02 0.0000000000000000e+00  -3.4258522561626203e-02 -1.4070673587066590e-02 0.0000000000000000e+00  -2.3897499824106945e-02 -3.5818616509001602e-02 0.0000000000000000e+00  -3.7360664106932416e-02 -4.9781735194574447e-03 0.0000000000000000e+00  -1.9266704317090749e-03 -2.9018803804900288e-02 0.0000000000000000e+00  -7.2673172299735867e-03 -3.0294208349413997e-02 0.0000000000000000e+00  -4.1072589294875598e-03 -3.3622390974504717e-03 0.0000000000000000e+00  -1.6402360031205567e-02 -3.9394033865088104e-03 0.0000000000000000e+00  -2.4773152998073457e-02 -3.2884715041646466e-02 0.0000000000000000e+00  -8.4654013511657328e-03 -1.5223865755463308e-02 0.0000000000000000e+00  -2.9213319500631201e-02 -2.6421837423630558e-02 0.0000000000000000e+00  -6.9393110013578245e-03 -3.3807942185434384e-02 0.0000000000000000e+00  -4.6664803893291303e-03 -3.5354804334386002e-02 0.0000000000000000e+00  -1.6401648478091335e-02 -3.6305014350073953e-02 0.0000000000000000e+00  -1.8555960678747117e-02 -3.6442367599942162e-02 0.0000000000000000e+00  -3.2783936585001762e-02 -2.2024363786788109e-02 0.0000000000000000e+00  -3.7428205553117558e-02 -1.9067692770392875e-02 0.0000000000000000e+00  -3.4474737064460095e-02 -2.8846241297844279e-02 0.0000000000000000e+00  -7.2682920128660771e-03 -2.2403053891642662e-02 0.0000000000000000e+00  -3.7249947561780974e-02 -7.0699896318662742e-03 0.0000000000000000e+00  -1.6524323874817032e-02 -8.8682738565976863e-03 0.0000000000000000e+00  -2.3497572184666474e-02 -1.5280355251819628e-02 0.0000000000000000e+00  -1.0079404345660226e-02 -1.5281678967719871e-02 0.0000000000000000e+00  -1.6524317575483574e-02 -2.2247275086126991e-02 0.0000000000000000e+00  -2.2843102913749677e-02 -8.4122754382621283e-03 0.0000000000000000e+00  -2.7692516952844592e-02 -3.6349841344654934e-03 0.0000000000000000e+00  -1.3633144190674712e-02 -2.8767420305119552e-03 0.0000000000000000e+00  -4.0091587271130335e-03 -1.1179779944703286e-03 0.0000000000000000e+00  -9.8722678987615258e-03 -1.6756370538969496e-03 0.0000000000000000e+00  -3.7491070786876697e-02 -3.6609692570656049e-02 0.0000000000000000e+00  -1.6524323874817032e-02 -8.8682738565976863e-03 0.0000000000000000e+00  -1.0079404345660226e-02 -1.5281678967719871e-02 0.0000000000000000e+00  -3.7296600346387543e-02 -3.1214184438859701e-02 0.0000000000000000e+00  -3.5618998271660044e-03 -4.0876534069809812e-03 0.0000000000000000e+00  -2.5226996426929204e-03 -1.1561831981511563e-02 0.0000000000000000e+00  -1.8267755119425730e-02 -1.1623484833532022e-03 0.0000000000000000e+00  -2.5701959767318171e-02 -2.6231715760023171e-03 0.0000000000000000e+00  -2.9935658803827703e-02 -1.7706190335463973e-02 0.0000000000000000e+00  -2.3551196904845480e-02 -2.2493733805418567e-02 0.0000000000000000e+00  -2.3181460207227261e-02 -2.2097079225788564e-02 0.0000000000000000e+00  -1.6402360031205567e-02 -3.9394033865088104e-03 0.0000000000000000e+00  -1.6467150539514724e-02 -1.2775119764005275e-03 0.0000000000000000e+00  -2.9642293298676684e-02 -1.5115103412788843e-02 0.0000000000000000e+00  -1.6361610337636015e-02 -1.5302700072660068e-02 0.0000000000000000e+00  -4.9016928208877797e-03 -1.5157817789467669e-02 0.0000000000000000e+00  -1.6197259162208325e-02 -1.5115794657269721e-02 0.0000000000000000e+00  -2.3728151982880053e-03 -1.5223692942040838e-02 0.0000000000000000e+00  -1.6467219076616003e-02 -3.3622260859490452e-02 0.0000000000000000e+00  -1.6361429433813333e-02 -2.8711721533044382e-02 0.0000000000000000e+00  -1.6467150539514724e-02 -1.2775119764005275e-03 0.0000000000000000e+00  -2.3728151982880053e-03 -1.5223692942040838e-02 0.0000000000000000e+00  -2.9642293298676684e-02 -1.5115103412788843e-02 0.0000000000000000e+00  -3.7352907980437840e-02 -1.5155345008922129e-02 0.0000000000000000e+00  -3.4805488661627575e-02 -1.5222262998622038e-02 0.0000000000000000e+00  -3.7352907980437840e-02 -1.5155345008922129e-02 0.0000000000000000e+00  -3.4805488661627575e-02 -1.5222262998622038e-02 0.0000000000000000e+00  -3.6819138146666520e-02 -3.3398317206542530e-02 0.0000000000000000e+00  -2.9547882953846406e-02 -1.8716756799980309e-02 0.0000000000000000e+00  -3.4541758246381955e-02 -8.7635615553252697e-03 0.0000000000000000e+00  -2.3678742225637157e-02 -2.2426778585088028e-02 0.0000000000000000e+00  -3.6574435300629482e-02 -2.1229432846178319e-03 0.0000000000000000e+00  -3.7602395471737507e-02 -8.9885573001417167e-04 0.0000000000000000e+00  -3.6443521125890083e-02 -2.0158237022675149e-03 0.0000000000000000e+00  -1.0325837352592572e-02 -2.7849657063748474e-03 0.0000000000000000e+00  -2.2319813066160755e-03 -8.9517730627854415e-03 0.0000000000000000e+00  -3.6914769286074157e-02 -3.5716786197312307e-03 0.0000000000000000e+00  -2.9153979858120793e-02 -3.4015060317380282e-02 0.0000000000000000e+00  -1.2721931351556862e-02 -3.6450599152919573e-02 0.0000000000000000e+00  -1.9382674002023623e-02 -2.8048527558277150e-02 0.0000000000000000e+00  -3.5702796521732139e-02 -3.6181519437806828e-02 0.0000000000000000e+00  -2.2546162112883489e-03 -1.0080635764028033e-03 0.0000000000000000e+00  -1.9156999019181696e-03 -3.3460176904403921e-02 0.0000000000000000e+00  -1.9060759256008645e-03 -3.2042265145100654e-02 0.0000000000000000e+00  -3.0363981143056506e-02 -3.4053702384951721e-02 0.0000000000000000e+00  -7.4443068646674300e-03 -3.6505963376665888e-02 0.0000000000000000e+00  -2.9417591527090406e-02 -9.3480696885781520e-04 0.0000000000000000e+00  -5.0036064498481447e-03 -2.9542020875224961e-02 0.0000000000000000e+00  -2.5976094025187777e-03 -3.5907206221879463e-02 0.0000000000000000e+00  -2.2819781082476398e-02 -1.1429663097963399e-03 0.0000000000000000e+00  -3.7006751163637247e-02 -3.6247024572920471e-02 0.0000000000000000e+00  -2.9364034197367120e-02 -4.3803568218019834e-03 0.0000000000000000e+00  -3.0846303184238442e-02 -3.1842261348181432e-02 0.0000000000000000e+00  -3.1018608732946876e-02 -1.0208847618094058e-03 0.0000000000000000e+00  -3.0920420941440679e-02 -3.7913162628525963e-03 0.0000000000000000e+00  -4.6293738586022587e-03 -6.9656749543377762e-03 0.0000000000000000e+00  -5.7839537860087178e-03 -3.6139918114851191e-02 0.0000000000000000e+00  -1.9892517086038636e-02 -1.7271094606937241e-02 0.0000000000000000e+00  -3.3413375912696976e-02 -2.7998247992368868e-02 0.0000000000000000e+00  -2.2656393292139261e-02 -2.8094998557658915e-02 0.0000000000000000e+00  -3.4948177715830607e-02 -8.1760959906225436e-03 0.0000000000000000e+00  -3.7594102704781161e-02 -3.6279781506064063e-02 0.0000000000000000e+00  -2.2485244557762976e-02 -9.6161751108920484e-03 0.0000000000000000e+00  -1.0928185202497998e-02 -1.2788420063864610e-02 0.0000000000000000e+00  -3.7672955385478858e-02 -2.7666645873612040e-02 0.0000000000000000e+00  -2.9152638202368758e-03 -3.5271935873175640e-02 0.0000000000000000e+00  -3.2507397176969120e-02 -2.7142193808907495e-02 0.0000000000000000e+00  -3.2531956440619451e-02 -3.6654923666614832e-02 0.0000000000000000e+00  -3.6699627425629516e-02 -1.3534196644685182e-02 0.0000000000000000e+00  -3.7656527004453350e-02 -9.5497860103318215e-03 0.0000000000000000e+00  -1.9087227212527993e-02 -3.3230304508247537e-02 0.0000000000000000e+00  -1.0618406824809065e-02 -2.6750516634492644e-02 0.0000000000000000e+00  -1.7505278011706579e-02 -2.4950819450003114e-02 0.0000000000000000e+00  -2.6686406242630517e-03 -2.3743115886776019e-03 0.0000000000000000e+00  -3.3933932840430482e-02 -1.1803187290807524e-02 0.0000000000000000e+00  -3.7704243800739903e-02 -3.5140827295585847e-02 0.0000000000000000e+00  -1.9574729406597553e-02 -1.0738320945087424e-02 0.0000000000000000e+00  -2.2941533244406665e-02 -3.4100627200706959e-02 0.0000000000000000e+00  -3.5389191986795729e-02 -2.3525723318049852e-02 0.0000000000000000e+00  -2.2113528839375323e-02 -3.5604329735839282e-02 0.0000000000000000e+00  -2.1520795522391927e-02 -3.6667724701314956e-02 0.0000000000000000e+00  -3.3769747904892288e-03 -1.4439465419753728e-03 0.0000000000000000e+00  -1.3400546335599410e-02 -3.3770228681638030e-02 0.0000000000000000e+00  -2.2644195270134690e-03 -3.3561627878579358e-03 0.0000000000000000e+00  -3.4433868598493945e-03 -1.0866907715922781e-02 0.0000000000000000e+00  -1.1615700531113354e-02 -3.3641022094078786e-02 0.0000000000000000e+00  -3.3057753283256566e-02 -1.3941867101513717e-03 0.0000000000000000e+00  -2.4084491008510730e-02 -3.4763668323562216e-02 0.0000000000000000e+00  -8.1082308127484043e-03 -9.6807480894424633e-03 0.0000000000000000e+00  -2.8243174581064748e-02 -3.6601942127850576e-02 0.0000000000000000e+00  -1.1229039132649972e-02 -2.4509051149525566e-02 0.0000000000000000e+00  -1.1546598937682619e-02 -3.1911792523536646e-02 0.0000000000000000e+00  -4.5600835510856471e-03 -2.7869543669770465e-02 0.0000000000000000e+00  -1.3573998144045672e-02 -1.5812959161773067e-03 0.0000000000000000e+00  -4.2315640161648899e-03 -2.8015545879777455e-02 0.0000000000000000e+00  -5.3621522865387877e-03 -1.1884260611362317e-02 0.0000000000000000e+00  -3.6065905632898382e-02 -1.8493528771732354e-02 0.0000000000000000e+00  -2.7973929120767314e-02 -2.6044535525740460e-03 0.0000000000000000e+00  -2.2419902985681417e-02 -3.3537021731301401e-03 0.0000000000000000e+00  -3.0920602389658658e-02 -3.6108026997248417e-02 0.0000000000000000e+00  -2.3117755016692061e-02 -3.6660247981268372e-02 0.0000000000000000e+00  -1.2207720331412533e-02 -9.5437448690968761e-04 0.0000000000000000e+00  -4.4369574511236845e