<?xml version="1.0"?>
<VTKFile type="UnstructuredGrid"  version="0.1"  >
<UnstructuredGrid>
<Piece  NumberOfPoints="1380" NumberOfCells="2630">
<Points>
<DataArray  type="Float64"  NumberOfComponents="3"  format="ascii">-1 -1 0  1 -1 0  1 1 0  -1 1 0  0 -1 0  1 0 0  0 1 0  -1 0 0  0 0 0  -1 -0.5 0  -0.5 -1 0  -0.5 1 0  -1 0.5 0  1 -0.5 0  0.5 -1 0  1 0.5 0  0.5 1 0  0.4166666666666666 -0.4166666666666667 0  -0.4166666666666667 0.4166666666666667 0  -0.25 -0.5 0  0.5 0.25 0  -0.4861111111111112 -0.06944444444444445 0  0.0732758620689655 0.507183908045977 0  -0.625 -0.625 0  0.625 0.625 0  0.7380952380952381 -0.25 0  -0.7099116161616161 0.2105429292929293 0  -0.25 0.7380952380952381 0  0.105392156862745 -0.6348039215686275 0  0.6770833333333334 -0.6770833333333333 0  -0.6770833333333334 0.6770833333333334 0  0.3472222222222222 -0.06944444444444446 0  -0.7264957264957265 -0.3044871794871795 0  0.3141940982507127 0.7297313660835709 0  0.02049587951122483 -0.3227479397556124 0  -0.2690972222222223 0.1475694444444444 0  0.3859500089908372 -0.7274430156831472 0  -0.2228477945123298 -0.1761765495248019 0  0.2182539682539683 0.1884920634920635 0  0.75 0.375 0  -0.145442219440968 -0.7602211097204841 0  0.7088913690476191 0.0427827380952381 0  -0.75 -1 0  -1 -0.75 0  1 0.75 0  0.75 1 0  -0.7439982703698937 -0.04614153195464455 0  -0.4609235096577606 -0.3356498099556895 0  0.4063134471431929 0.4895621842856023 0  0.25 -1 0  -0.25 -1 0  -0.75 1 0  0.75 -1 0  -1 -0.25 0  -1 0.25 0  1 -0.25 0  -0.25 1 0  1 -0.75 0  -1 0.75 0  0.25 1 0  1 0.25 0  -0.4041423272138783 -0.7597141090712928 0  0.06500839607911253 0.7578103030529481 0  -0.1572801182352047 0.3838997021864289 0  -0.6528005242053915 0.4409494757946086 0  -0.4930160984848485 0.1544744318181818 0  -0.4732142857142858 0.7752976190476191 0  0.6398809523809523 -0.4538690476190476 0  0.5166054117396399 -0.2161233620965164 0  -0.002273787244753427 0.2232363985975174 0  0.1500564496765022 -0.1524955293952667 0  0.2016720420046758 -0.4410343282803009 0  -0.08495178036419618 0.6274139771124571 0  -0.8367311471133162 0.3642591720794645 0  -0.8333333333333334 -0.625 0  -0.594323836800685 -0.8231079456002283 0  -0.4466957714776065 -0.5349126855671806 0  0.8125 0.5625 0  0.78125 0.78125 0  0.5091392650016769 0.7947130883338923 0  0.125 -0.8382681931833136 0  -0.8184523809523809 -0.8184523809523809 0  -0.07781530426104531 -0.5819319697006881 0  0.5085055196703295 0.04967610411902112 0  0.2918471072074933 -0.276017202318847 0  0.5120763537765269 -0.5898771553229597 0  0.625 -0.8585349462365591 0  0.8158532234335381 -0.8158532234335381 0  -0.5198088446315396 0.5739411553684605 0  -0.8585349462365591 0.625 0  -0.8150493805516597 0.8156205699829586 0  0.8585349462365591 -0.625 0  -0.2688268348649726 0.5439331383603209 0  0.8242100426758139 -0.4436043596336612 0  0.5833756314287952 0.4479378157143976 0  0.8690476190476191 -0.125 0  -0.125 0.8690476190476191 0  -0.8692745600729823 0.125 0  0.8696725120759167 0.125 0  -0.625 0.8711516477451908 0  0.2339522463269718 0.3879558377955778 0  0.2453709502295031 0.5655822922838026 0  0.1730610651637797 0.02021709580868947 0  0.3245402594056757 -0.5644672020485209 0  -0.7291666666666666 -0.4816595441595442 0  -1 -0.375 0  -0.5811140848639904 -0.2127276307675001 0  0.673332592838314 0.2158348143233718 0  0.375 1 0  -0.5714768890989919 0.2985103444040069 0  -1 -0.125 0  -0.8453692574786325 -0.1875 0  -0.3144549134065865 -0.02408675326008025 0  -0.2898414972096258 -0.3336092734780093 0  -0.1075052092206287 -0.4224330421314983 0  -0.05043970703604117 -0.1652278959397459 0  0.6459672950297897 -0.1113415301525317 0  0.4645210271029513 0.6398480556579343 0  0.3512863754411909 0.0937979496253573 0  -0.6063160985568274 0.03891469652249891 0  -0.3428819444444445 0.8690476190476191 0  0.625 1 0  -0.1602164796159982 0.02697860906625157 0  0.04648110064133829 -0.4808416424239687 0  1 0.875 0  -0.3836102479201657 0.6484936449177356 0  -0.3776011723096096 0.263078478984336 0  -0.6024978259969829 -0.3949628096211138 0  0.125 1 0  0.2010781308272777 0.8456221018461906 0  0.2822509696388829 -0.845902544691141 0  -0.3285533674953515 -0.6289773550938936 0  0.3461306793221754 0.278777492464833 0  0.4737475672408696 -0.8508448959534423 0  0.2384632828836344 -0.7029523187242811 0  -0.004777287059791593 0.3759269695907358 0  -0.8499735021850066 -0.3912320205328522 0  0.1222536293721587 0.2963971539625205 0  -0.3769456520999688 -0.203572526805711 0  -0.2749617205755651 -0.8464290792698902 0  0.004805888512766143 -0.747174355248311 0  -0.125 -1 0  -0.06001061822252458 -0.8724007765244854 0  0.875 0.4375 0  0.854421179608893 0.271342359217786 0  0.875 1 0  -0.1499861095763589 0.2358309656934888 0  0.3381943639137225 0.8663061796405532 0  -0.7853090110442228 0.4998412775277108 0  0.7398165998560814 -0.5535192694951373 0  0.1580042122341573 -0.3100246140259917 0  -0.7291666666666667 -0.7142857142857142 0  -0.375 -1 0  0.6483368386154684 0.8514905990110488 0  -0.1295370103291928 -0.2826118305021242 0  0.07458201853700455 0.1123894386563915 0  0.6146465857036327 -0.3161203659316075 0  0.5551898493894731 -0.740296118159085 0  0.375 -1 0  0.482702798370208 -0.084133350091034 0  0.87890625 0.68359375 0  -0.05917195534525846 0.4971092425697621 0  0.1260710309213975 0.6343750312956699 0  0.8690476190476191 -0.3077066815262848 0  -0.2912010232560567 0.3668168386732139 0  -0.875 1 0  -1 0.875 0  1 -0.875 0  0.875 -1 0  -0.8689564281364567 -0.006189266075306407 0  -0.7449425635110547 0.08458938160051771 0  -0.7150266761936593 -0.1739444581417552 0  -0.5260034831318311 -0.711099823962112 0  -0.4724626808827322 -0.871722230709409 0  0.4734436795977052 0.377714794132168 0  -0.875 -1 0  -1 -0.875 0  0.6927189078571988 0.5156567235715964 0  -0.3742497615796874 -0.4296005251260107 0  -0.1969436423297711 -0.6387157229772615 0  -0.6179496409766825 -0.08933356056510935 0  -0.424405057115988 0.04452428810878029 0  -0.08479048335844169 0.1279607007132633 0  0.003830300099055113 0.8712085230656206 0  0.8748778838820267 -1.379218479898026e-05 0  -0.375 1 0  -0.625 1 0  1 0.125 0  -0.125 1 0  1 -0.375 0  1 -0.125 0  1 -0.625 0  0.625 -1 0  0.125 -1 0  -0.625 -1 0  -1 -0.625 0  -1 0.125 0  -1 0.375 0  -1 0.625 0  1 0.375 0  1 0.625 0  0.6325660748712082 0.3335187599557389 0  -0.06420945895056573 0.7549874027425891 0  -0.8769015540914771 0.2478802253893416 0  0.871875 0.871875 0  -0.6868091492840067 0.3270978624973681 0  -0.5363597469565949 0.412994850055505 0  -0.6803734992638302 0.5574295000651103 0  -0.7076253581162534 -0.8803439094224437 0  -0.8778089002295137 -0.5106896447504627 0  -0.3860184984222981 0.530566778071246 0  0.6109900617121508 0.1128453077697081 0  0.3896945134930274 -0.1915382873255086 0  0.7605656944697778 -0.06822134873122943 0  0.3576151269893478 0.5948388411612135 0  -0.5689902680792265 -0.5143596830118065 0  0.6262446286847614 -0.5735657901943212 0  0.2030558252325225 -0.5625263842513452 0  0.6123273142928579 0.7407533260723429 0  0.4016460890123554 -0.3042863223111857 0  -0.59039693199147 0.7578418819188018 0  0.7276932493917544 -0.3705808024528924 0  0.5222536818742854 -0.4713886230400014 0  -0.5101986527137737 0.8848365765607674 0  0.510560172809238 0.5356013299918891 0  -0.3603569195756083 0.75823710606415 0  0.1967279277813232 0.728226870058472 0  -0.6086880986371127 0.1545624071548516 0  -0.38105366729386 0.1511189987807864 0  -0.2944659463671584 -0.7359061804869591 0  0.5060729154966499 -0.3475227845833823 0  -0.09281616240412746 -0.06197858250969457 0  0.7649739583333334 0.6673177083333334 0  0.7628906249999999 0.890234375 0  -0.2666864184909611 0.2585504071132311 0  0.3635064892129658 0.3878003602709461 0  -0.2339409722222222 0.8901937905844155 0  -0.1718792125974916 -0.8957733325456778 0  0.1001768566329531 0.4023510017391879 0  0.3120260172693757 -0.4540546875576884 0  0.7804062804433681 0.1896628610854537 0  0.4087715451998049 0.187961780041608 0  -0.1584963477271457 0.5451611892421655 0  -0.8926817849258324 0.463022006336401 0  0.2338091473445219 -0.07576267331277289 0  0.08171112182813692 -0.2349087687359925 0  0.04635385178956847 -0.1044635073718474 0  -0.4377391632114205 -0.6448874471423088 0  -0.1907678351227189 0.6480215912813945 0  0.300605946475244 0.4741444604171038 0  -0.2145033720757486 -0.06751709909419711 0  0.6069191921170397 -0.005492331448357812 0  0.0214718770761248 0.6032397936031719 0  0.5476675683364878 0.8992752415326501 0  0.4387475014316537 0.9093708953002239 0  -0.4932997685306436 -0.4381009159993523 0  0.2515197695339056 -0.1791673369138964 0  -0.7291666666666667 -0.6088789682539681 0  -0.9166666666666667 -0.6875 0  0.620579540363709 -0.2122431523583302 0  -0.484950136419973 0.6719440339397442 0  0.2857044415400258 0.0137589173127316 0  -0.8945708364098356 -0.288306105327986 0  0.4043102720140535 0.7842914560451557 0  0.04123256238752064 -0.9026968245801402 0  0.2003676884403109 -0.9091888601740487 0  0.1068775558538842 -0.7373377130403223 0  -0.4804566783514427 -0.1763307203045643 0  0.108286342087769 -0.3993789328997278 0  -0.191883080105361 -0.3640821726430649 0  -0.07025064492006244 0.2984876656890053 0  -0.7039324641409584 0.788312126296613 0  -0.7311286585775438 0.8932502354831682 0  0.5171409396884947 0.1503852691889257 0  0.4229392823658633 -0.003216522184234835 0  -0.5621736087218259 -0.919558629836806 0  -0.626474064879544 -0.7266572613636506 0  0.2446828746617422 0.2867616783302419 0  0.1759429608742923 0.4776611759306416 0  -0.3468240303741654 -0.5260416435617549 0  -0.7465808808425306 0.4069574477998361 0  -0.7819962170660292 0.2802441065650652 0  -0.3742623214119594 -0.8547800509641984 0  0.1014498009713561 0.8506721983266377 0  0.4285217620918213 -0.5230190595570253 0  0.4091738370487775 -0.6256346204225141 0  0.78125 0.46875 0  0.90625 0.53125 0  -0.4791801348852565 0.2553992655702126 0  0.7843318610782772 -0.7086046956885941 0  0.8909728264971901 -0.7355183796514634 0  0.7041908166528879 -0.7830649143180282 0  0.7311821352
[...]
<PointData  Vectors="f_22"> 
<DataArray  type="Float64"  Name="f_22"  NumberOfComponents="3" format="ascii">-2.8464411631040575e-03 -2.8893014665754124e-03 0.0000000000000000e+00  -2.8464411631040575e-03 -2.8893014665754124e-03 0.0000000000000000e+00  -2.8464411631040575e-03 -2.8893014665754124e-03 0.0000000000000000e+00  -2.8464411631040575e-03 -2.8893014665754124e-03 0.0000000000000000e+00  -2.8464253758242759e-03 -2.9151214132442905e-03 0.0000000000000000e+00  -2.8739138794289677e-03 -2.8892833273148517e-03 0.0000000000000000e+00  -2.8464253758242759e-03 -2.9151214132442905e-03 0.0000000000000000e+00  -2.8739138794289677e-03 -2.8892833273148517e-03 0.0000000000000000e+00  -2.8739240008173613e-03 -2.9151425110546495e-03 0.0000000000000000e+00  -2.6710899559099156e-03 -2.8892909400548509e-03 0.0000000000000000e+00  -2.8464350594840219e-03 -2.7131269916557850e-03 0.0000000000000000e+00  -2.8464350594840219e-03 -2.7131269916557850e-03 0.0000000000000000e+00  -3.0492675577515642e-03 -2.8892876185004700e-03 0.0000000000000000e+00  -2.6710899559099156e-03 -2.8892909400548509e-03 0.0000000000000000e+00  -2.8464292350305473e-03 -3.0913084442478057e-03 0.0000000000000000e+00  -3.0492675577515642e-03 -2.8892876185004700e-03 0.0000000000000000e+00  -2.8464292350305473e-03 -3.0913084442478057e-03 0.0000000000000000e+00  -2.6810822541389577e-03 -3.0882001771033400e-03 0.0000000000000000e+00  -3.0463688147309913e-03 -2.7229048599441267e-03 0.0000000000000000e+00  -2.6710995094162589e-03 -2.7776447067281761e-03 0.0000000000000000e+00  -3.0036034586535584e-03 -3.0913108788050590e-03 0.0000000000000000e+00  -2.8326712010619602e-03 -2.7138709143016688e-03 0.0000000000000000e+00  -3.0489062856543072e-03 -2.9579450747840717e-03 0.0000000000000000e+00  -2.6802375417286231e-03 -2.7225872264976438e-03 0.0000000000000000e+00  -3.0296176261496725e-03 -3.0719724965048755e-03 0.0000000000000000e+00  -2.7361809529610746e-03 -3.0320254394074785e-03 0.0000000000000000e+00  -2.9871638373298835e-03 -2.7448515889122271e-03 0.0000000000000000e+00  -2.9894275888965689e-03 -2.7776358605583053e-03 0.0000000000000000e+00  -2.6821440937000928e-03 -2.9758942793516722e-03 0.0000000000000000e+00  -2.6923485851387059e-03 -3.0559595076398629e-03 0.0000000000000000e+00  -3.0134870953065097e-03 -2.7348194213883928e-03 0.0000000000000000e+00  -2.8326741970002753e-03 -3.0759107146641957e-03 0.0000000000000000e+00  -2.7135713240226960e-03 -2.7505772943015394e-03 0.0000000000000000e+00  -2.9930406309143344e-03 -3.0671196811427725e-03 0.0000000000000000e+00  -2.7069200114800823e-03 -2.9272798527680190e-03 0.0000000000000000e+00  -2.9570268111251555e-03 -2.7693059580749095e-03 0.0000000000000000e+00  -2.7083297735839020e-03 -3.0838227662497277e-03 0.0000000000000000e+00  -2.7724811932062750e-03 -2.7902737466370849e-03 0.0000000000000000e+00  -2.9771294731529225e-03 -3.0319543861805445e-03 0.0000000000000000e+00  -3.0401367315229604e-03 -3.0267901901903193e-03 0.0000000000000000e+00  -2.7208135409652482e-03 -2.8303869345815626e-03 0.0000000000000000e+00  -2.8991291485578152e-03 -3.0441340728453842e-03 0.0000000000000000e+00  -2.8464362554987319e-03 -2.7593864259382629e-03 0.0000000000000000e+00  -2.7167667427498029e-03 -2.8892988575246084e-03 0.0000000000000000e+00  -2.9841646378105046e-03 -2.8892933545785126e-03 0.0000000000000000e+00  -2.8464377246841415e-03 -3.0267843406277012e-03 0.0000000000000000e+00  -2.8464559614090933e-03 -2.7570432743258782e-03 0.0000000000000000e+00  -2.7025284672652968e-03 -2.7161374690512154e-03 0.0000000000000000e+00  -3.0496221778899316e-03 -3.0869318282408845e-03 0.0000000000000000e+00  -2.8464268734011916e-03 -3.0450561751881192e-03 0.0000000000000000e+00  -2.8464267577618446e-03 -2.7776418477333436e-03 0.0000000000000000e+00  -2.8464362554987319e-03 -2.7593864259382629e-03 0.0000000000000000e+00  -2.8464377246841415e-03 -3.0267843406277012e-03 0.0000000000000000e+00  -2.7361818583034343e-03 -2.8892879279782254e-03 0.0000000000000000e+00  -3.0035946059341081e-03 -2.8892848367681784e-03 0.0000000000000000e+00  -2.7361818583034343e-03 -2.8892879279782254e-03 0.0000000000000000e+00  -2.8464267577618446e-03 -2.7776418477333436e-03 0.0000000000000000e+00  -2.7167667427498029e-03 -2.8892988575246084e-03 0.0000000000000000e+00  -2.9841646378105046e-03 -2.8892933545785126e-03 0.0000000000000000e+00  -2.8464268734011916e-03 -3.0450561751881192e-03 0.0000000000000000e+00  -3.0035946059341081e-03 -2.8892848367681784e-03 0.0000000000000000e+00  -2.7206164419051027e-03 -2.7254705311594960e-03 0.0000000000000000e+00  -2.9805973139963591e-03 -2.9532126166867041e-03 0.0000000000000000e+00  -3.0417268262616223e-03 -2.8239138127493660e-03 0.0000000000000000e+00  -3.0485476262456335e-03 -2.7285242644225793e-03 0.0000000000000000e+00  -2.9605367504756219e-03 -2.7134504735324572e-03 0.0000000000000000e+00  -2.9723732611591364e-03 -2.7148770319852982e-03 0.0000000000000000e+00  -2.6750477290467321e-03 -3.0678281162556452e-03 0.0000000000000000e+00  -2.7521225548190007e-03 -3.0903671237222825e-03 0.0000000000000000e+00  -2.9926877390556612e-03 -2.9137950779963922e-03 0.0000000000000000e+00  -2.7852156718902832e-03 -2.9996092436992265e-03 0.0000000000000000e+00  -2.6768521931426420e-03 -3.0245745823080190e-03 0.0000000000000000e+00  -3.0289504330036250e-03 -2.8648021226227345e-03 0.0000000000000000e+00  -3.0380101502808263e-03 -2.7981556527530652e-03 0.0000000000000000e+00  -2.6802343199316212e-03 -2.7964924890239214e-03 0.0000000000000000e+00  -2.7487594354398213e-03 -2.7176047766479393e-03 0.0000000000000000e+00  -2.6707339769370050e-03 -2.7179336343031791e-03 0.0000000000000000e+00  -3.0429581819627393e-03 -2.9965191185573566e-03 0.0000000000000000e+00  -2.9695109444476983e-03 -3.0121820823345493e-03 0.0000000000000000e+00  -2.9628640216152252e-03 -3.0908621062089949e-03 0.0000000000000000e+00  -2.7561712815157655e-03 -2.9865094410781870e-03 0.0000000000000000e+00  -2.7465264548860598e-03 -2.7892612735554954e-03 0.0000000000000000e+00  -2.6738246797281284e-03 -2.8689848566649584e-03 0.0000000000000000e+00  -2.9031491375757106e-03 -3.0908930712149939e-03 0.0000000000000000e+00  -2.7248914460130283e-03 -3.0601551178562484e-03 0.0000000000000000e+00  -2.6747422453757769e-03 -3.0906704426781548e-03 0.0000000000000000e+00  -2.7664785069579207e-03 -3.0719638297765713e-03 0.0000000000000000e+00  -2.7452899060730874e-03 -2.9947851250749788e-03 0.0000000000000000e+00  -3.0410085227897204e-03 -2.7126828844894310e-03 0.0000000000000000e+00  -3.0296107797447755e-03 -2.8092552582848433e-03 0.0000000000000000e+00  -2.9521759758952132e-03 -2.7876377618123332e-03 0.0000000000000000e+00  -2.6802273515832689e-03 -2.9718404589032426e-03 0.0000000000000000e+00  -3.0455642566279695e-03 -2.7694148634734381e-03 0.0000000000000000e+00  -2.6764660729428915e-03 -2.9904003263492257e-03 0.0000000000000000e+00  -3.0489880528486368e-03 -3.0815136570601972e-03 0.0000000000000000e+00  -2.8005010520387413e-03 -2.9659728568888202e-03 0.0000000000000000e+00  -2.9231799432047202e-03 -2.8417796392175890e-03 0.0000000000000000e+00  -2.9452253816967229e-03 -2.8148646750391806e-03 0.0000000000000000e+00  -2.9452281976662257e-03 -2.9656233596646354e-03 0.0000000000000000e+00  -2.9220074432832017e-03 -2.7225805277855358e-03 0.0000000000000000e+00  -3.0424175854520505e-03 -3.0386073596429721e-03 0.0000000000000000e+00  -3.0424573622002144e-03 -3.0432424059853354e-03 0.0000000000000000e+00  -2.8859040411741213e-03 -3.0111028499572299e-03 0.0000000000000000e+00  -2.6721835235844239e-03 -3.0700594034696205e-03 0.0000000000000000e+00  -2.6722035800994821e-03 -2.7515410528876163e-03 0.0000000000000000e+00  -2.6907389513675961e-03 -2.8892875206452278e-03 0.0000000000000000e+00  -2.7537980128839318e-03 -2.7159784915188785e-03 0.0000000000000000e+00  -2.9894955665377334e-03 -3.0572596443368166e-03 0.0000000000000000e+00  -2.8464282405262298e-03 -3.0818572158701138e-03 0.0000000000000000e+00  -3.0207536051955241e-03 -2.7149880510143145e-03 0.0000000000000000e+00  -2.8005051131820106e-03 -2.8892800872165883e-03 0.0000000000000000e+00  -2.7665460957493854e-03 -2.8024952649733500e-03 0.0000000000000000e+00  -2.8595953100825819e-03 -2.7514698320435121e-03 0.0000000000000000e+00  -2.7032121733356817e-03 -2.7608022190575179e-03 0.0000000000000000e+00  -2.6799981061780961e-03 -2.8517589885722265e-03 0.0000000000000000e+00  -2.7783176496705337e-03 -2.8851400470485278e-03 0.0000000000000000e+00  -2.8082778302470097e-03 -3.0660367174409342e-03 0.0000000000000000e+00  -3.0254645951711236e-03 -3.0915762609338608e-03 0.0000000000000000e+00  -2.9282520323098706e-03 -3.0768695163076224e-03 0.0000000000000000e+00  -2.8968773695339594e-03 -2.7193347344416164e-03 0.0000000000000000e+00  -2.9231824173560732e-03 -2.7418125447840739e-03 0.0000000000000000e+00  -2.8464296066132481e-03 -3.0719696586918098e-03 0.0000000000000000e+00  -2.8898846458917334e-03 -2.8223339221377661e-03 0.0000000000000000e+00  -2.6722598336376920e-03 -2.9425132699896031e-03 0.0000000000000000e+00  -2.9198412043996837e-03 -2.8892920124872880e-03 0.0000000000000000e+00  -3.0228620675877790e-03 -2.7302382605706140e-03 0.0000000000000000e+00  -3.0085641232810438e-03 -2.7317764136808851e-03 0.0000000000000000e+00  -2.6857540960350990e-03 -2.7187635105523152e-03 0.0000000000000000e+00  -2.8464265857995035e-03 -2.9865039105456412e-03 0.0000000000000000e+00  -2.9361636512668216e-03 -3.0242971149750534e-03 0.0000000000000000e+00  -2.7600082891335947e-03 -3.0569208928139979e-03 0.0000000000000000e+00  -2.6809934311885454e-03 -2.7465244425249127e-03 0.0000000000000000e+00  -3.0142181198442629e-03 -3.0756547964408561e-03 0.0000000000000000e+00  -2.7625182812349536e-03 -3.0917250589136813e-03 0.0000000000000000e+00  -2.7000523648298548e-03 -3.0404435765288384e-03 0.0000000000000000e+00  -3.0403059920193799e-03 -2.9123006520047493e-03 0.0000000000000000e+00  -2.6866288659041734e-03 -2.8048494668729113e-03 0.0000000000000000e+00  -3.0200949787066683e-03 -2.9850606077915349e-03 0.0000000000000000e+00  -2.7583617524649497e-03 -2.7319568570233926e-03 0.0000000000000000e+00  -2.7602784010394800e-03 -2.7668362701251188e-03 0.0000000000000000e+00  -2.7156579043196680e-03 -2.9179788717472216e-03 0.0000000000000000e+00  -2.8464241987906105e-03 -2.8417840779325168e-03 0.0000000000000000e+00  -2.7737330399761491e-03 -2.8794568386322030e-03 0.0000000000000000e+00  -3.0483171019458381e-03 -2.9626379486453942e-03 0.0000000000000000e+00  -3.0115821921411902e-03 -2.9741122612271229e-03 0.0000000000000000e+00  -2.8464360004162572e-03 -2.9626366820308808e-03 0.0000000000000000e+00  -2.9979428087302234e-03 -2.8278939798281337e-03 0.0000000000000000e+00  -2.9247309424920223e-03 -3.0736887594744831e-03 0.0000000000000000e+00  -3.0492665524940420e-03 -2.7740371736065935e-03 0.0000000000000000e+00  -2.6714523473764518e-03 -3.0312807336588064e-03 0.0000000000000000e+00  -2.7115059230766797e-03 -3.0036382070362192e-03 0.0000000000000000e+00  -2.7037882857310486e-03 -2.7515451362886685e-03 0.0000000000000000e+00  -2.8464307799293087e-03 -2.7324631529278393e-03 0.0000000000000000e+00  -2.9329528404971588e-03 -3.0653396458631341e-03 0.0000000000000000e+00  -2.7221755685723974e-03 -2.8392457630312833e-03 0.0000000000000000e+00  -2.9384659908283615e-03 -2.9586915346490857e-03 0.0000000000000000e+00  -2.7092710228209691e-03 -3.0746062783930752e-03 0.0000000000000000e+00  -2.7130381323151125e-03 -3.0862368755286166e-03 0.0000000000000000e+00  -2.8464282405262298e-03 -3.0818572158701138e-03 0.0000000000000000e+00  -2.8240378543689321e-03 -3.0917266628526221e-03 0.0000000000000000e+00  -3.0111824903260400e-03 -2.9604298640012448e-03 0.0000000000000000e+00  -3.0493775322119250e-03 -2.8799639293131470e-03 0.0000000000000000e+00  -3.0270285835330354e-03 -2.9870863979219002e-03 0.0000000000000000e+00  -2.7123538804077344e-03 -2.9659707311472413e-03 0.0000000000000000e+00  -3.0385327149890194e-03 -2.7602446312758799e-03 0.0000000000000000e+00  -2.8464406792770131e-03 -2.8179296474182746e-03 0.0000000000000000e+00  -2.9198412043996837e-03 -2.8892920124872880e-03 0.0000000000000000e+00  -2.7751311351626559e-03 -2.8893016868723922e-03 0.0000000000000000e+00  -2.8464360004162572e-03 -2.9626366820308808e-03 0.0000000000000000e+00  -2.8702356635342562e-03 -2.8147032270532408e-03 0.0000000000000000e+00  -2.9230957568260689e-03 -2.7574052062471466e-03 0.0000000000000000e+00  -2.7736531018343518e-03 -2.7465775067974972e-03 0.0000000000000000e+00  -2.7027187853954017e-03 -2.7127114980655962e-03 0.0000000000000000e+00  -2.7733941645149761e-03 -2.7149536603833730e-03 0.0000000000000000e+00  -3.0406418336380043e-03 -3.0917326340689322e-03 0.0000000000000000e+00  -2.8464406792770131e-03 -2.8179296474182746e-03 0.0000000000000000e+00  -2.7751311351626559e-03 -2.8893016868723922e-03 0.0000000000000000e+00  -3.0483687274792180e-03 -3.0503438251183999e-03 0.0000000000000000e+00  -2.6787194879308559e-03 -2.7326676865435918e-03 0.0000000000000000e+00  -2.6829667481070921e-03 -2.8030707037889221e-03 0.0000000000000000e+00  -2.8210086229096720e-03 -2.7212804452354617e-03 0.0000000000000000e+00  -2.9001507208028222e-03 -2.7214731661903053e-03 0.0000000000000000e+00  -2.9468202823247688e-03 -2.8649132226651864e-03 0.0000000000000000e+00  -2.9219588461609236e-03 -2.9174008394226032e-03 0.0000000000000000e+00  -2.8739033973199709e-03 -2.9626940105771343e-03 0.0000000000000000e+00  -2.8464307799293087e-03 -2.7324631529278393e-03 0.0000000000000000e+00  -2.8464319895693704e-03 -2.7225825966162779e-03 0.0000000000000000e+00  -2.9452232767365112e-03 -2.8892854358928718e-03 0.0000000000000000e+00  -2.8464241987906105e-03 -2.8417840779325168e-03 0.0000000000000000e+00  -2.6907389513675961e-03 -2.8892875206452278e-03 0.0000000000000000e+00  -2.8005051131820106e-03 -2.8892800872165883e-03 0.0000000000000000e+00  -2.6802310642261907e-03 -2.8892904416446120e-03 0.0000000000000000e+00  -2.8464296066132481e-03 -3.0719696586918098e-03 0.0000000000000000e+00  -2.8464265857995035e-03 -2.9865039105456412e-03 0.0000000000000000e+00  -2.8464319895693704e-03 -2.7225825966162779e-03 0.0000000000000000e+00  -2.6802310642261907e-03 -2.8892904416446120e-03 0.0000000000000000e+00  -2.9452232767365112e-03 -2.8892854358928718e-03 0.0000000000000000e+00  -3.0401314293020580e-03 -2.8892881296864186e-03 0.0000000000000000e+00  -3.0296152070219766e-03 -2.8892943747649228e-03 0.0000000000000000e+00  -3.0401314293020580e-03 -2.8892881296864186e-03 0.0000000000000000e+00  -3.0296152070219766e-03 -2.8892943747649228e-03 0.0000000000000000e+00  -3.0308616599858144e-03 -3.0699186327050772e-03 0.0000000000000000e+00  -2.9818900856035382e-03 -2.8769786607963960e-03 0.0000000000000000e+00  -3.0027688349164063e-03 -2.8189231379647387e-03 0.0000000000000000e+00  -2.9216089455606307e-03 -2.9643948159064821e-03 0.0000000000000000e+00  -3.0291477764821453e-03 -2.7376035261837740e-03 0.0000000000000000e+00  -3.0459460218812458e-03 -2.7128780778249663e-03 0.0000000000000000e+00  -3.0437217623165984e-03 -2.7357439352214867e-03 0.0000000000000000e+00  -2.7779840288131730e-03 -2.7441175327790075e-03 0.0000000000000000e+00  -2.6707401328116714e-03 -2.8194222779995247e-03 0.0000000000000000e+00  -3.0470628460469960e-03 -2.7296383695816447e-03 0.0000000000000000e+00  -2.9387114699150505e-03 -3.0755095614513612e-03 0.0000000000000000e+00  -2.7644645560762266e-03 -3.0844534395672646e-03 0.0000000000000000e+00  -2.8333792397936680e-03 -3.0219597052379963e-03 0.0000000000000000e+00  -3.0369030961730254e-03 -3.0782969938460826e-03 0.0000000000000000e+00  -2.6706741478565682e-03 -2.7147816753667051e-03 0.0000000000000000e+00  -2.6729643298917358e-03 -3.0716251944840306e-03 0.0000000000000000e+00  -2.6720385080312567e-03 -3.0251975098026873e-03 0.0000000000000000e+00  -2.9882793993873426e-03 -3.0751925565132366e-03 0.0000000000000000e+00  -2.7136393090069367e-03 -3.0862759844169272e-03 0.0000000000000000e+00  -2.9805808829898354e-03 -2.7170805462721774e-03 0.0000000000000000e+00  -2.6919292522012443e-03 -3.0364639818159203e-03 0.0000000000000000e+00  -2.6730791643917360e-03 -3.0899313695523347e-03 0.0000000000000000e+00  -2.9142417584914269e-03 -2.7128088091603465e-03 0.0000000000000000e+00  -3.0465564899344929e-03 -3.0907796189233745e-03 0.0000000000000000e+00  -2.9803944982619525e-03 -2.7365136307390060e-03 0.0000000000000000e+00  -2.9936730358432148e-03 -3.0223106126588753e-03 0.0000000000000000e+00  -2.9605752761189788e-03 -2.7197097546709384e-03 0.0000000000000000e+00  -2.9588365614038204e-03 -2.7308895309139697e-03 0.0000000000000000e+00  -2.7114152887753903e-03 -2.7589675721576257e-03 0.0000000000000000e+00  -2.6986983658996906e-03 -3.0910151959473741e-03 0.0000000000000000e+00  -2.8370820743303083e-03 -2.8602380729208007e-03 0.0000000000000000e+00  -3.0168460802627315e-03 -3.0199306867135498e-03 0.0000000000000000e+00  -2.9111625438233463e-03 -3.0209008246271755e-03 0.0000000000000000e+00  -3.0068737407412233e-03 -2.7703301715338306e-03 0.0000000000000000e+00  -3.0423930377969709e-03 -3.0795695099177017e-03 0.0000000000000000e+00  -2.9111665167366988e-03 -2.7850000481285911e-03 0.0000000000000000e+00  -2.7863494583987023e-03 -2.8160762186104711e-03 0.0000000000000000e+00  -3.0445917358681469e-03 -2.9730431509908443e-03 0.0000000000000000e+00  -2.6750274641525154e-03 -3.0664723657299669e-03 0.0000000000000000e+00  -2.9776706548699898e-03 -3.0125837156209597e-03 0.0000000000000000e+00  -2.9768882987450305e-03 -3.0872529664910642e-03 0.0000000000000000e+00  -3.0454114735189424e-03 -2.8232515484244310e-03 0.0000000000000000e+00  -3.0495823654719746e-03 -2.8274664796171163e-03 0.0000000000000000e+00  -2.8289591861859757e-03 -3.0385496315943651e-03 0.0000000000000000e+00  -2.7431292457106536e-03 -2.9627320581324295e-03 0.0000000000000000e+00  -2.8122504002152321e-03 -2.9424493091992697e-03 0.0000000000000000e+00  -2.6843129364827511e-03 -2.7192502376739967e-03 0.0000000000000000e+00  -3.0230104704376728e-03 -2.8062152493987498e-03 0.0000000000000000e+00  -3.0497634250676699e-03 -3.0629877567747805e-03 0.0000000000000000e+00  -2.8338136585900450e-03 -2.7943245947008341e-03 0.0000000000000000e+00  -2.8706523581927810e-03 -3.0764726401643241e-03 0.0000000000000000e+00  -3.0350194878133222e-03 -2.9278516471428150e-03 0.0000000000000000e+00  -2.9059540139520974e-03 -3.0872662893953566e-03 0.0000000000000000e+00  -2.9000952505683596e-03 -3.0902899700771987e-03 0.0000000000000000e+00  -2.6773202390572895e-03 -2.7134490503002958e-03 0.0000000000000000e+00  -2.7708994481432112e-03 -3.0456545819693374e-03 0.0000000000000000e+00  -2.6774465595605802e-03 -2.7515457362745971e-03 0.0000000000000000e+00  -2.6953328802924070e-03 -2.8408063143645942e-03 0.0000000000000000e+00  -2.7540219194991571e-03 -3.0731094425584171e-03 0.0000000000000000e+00  -3.0152609280179360e-03 -2.7139428271405132e-03 0.0000000000000000e+00  -2.8820853742615770e-03 -3.0581129525702202e-03 0.0000000000000000e+00  -2.7198634639351632e-03 -2.8285048118824705e-03 0.0000000000000000e+00  -2.9680284259385654e-03 -3.0866555930410418e-03 0.0000000000000000e+00  -2.7901578962306710e-03 -2.9394363239440661e-03 0.0000000000000000e+00  -2.7937679947279675e-03 -3.0239763964727919e-03 0.0000000000000000e+00  -2.7119330128672868e-03 -2.9767112009353907e-03 0.0000000000000000e+00  -2.7724038854226875e-03 -2.7142801707592014e-03 0.0000000000000000e+00  -2.6847308489999413e-03 -2.9774899457369569e-03 0.0000000000000000e+00  -2.6937672724589496e-03 -2.8056582722306360e-03 0.0000000000000000e+00  -3.0207553668877172e-03 -2.8734366419918300e-03 0.0000000000000000e+00  -2.9660379160374767e-03 -2.7429074893801420e-03 0.0000000000000000e+00  -2.9094241712081048e-03 -2.7522536402332601e-03 0.0000000000000000e+00  -2.9584683380914278e-03 -3.0903386862652441e-03 0.0000000000000000e+00  -2.8720080207713899e-03 -3.0888921438683948e-03 0.0000000000000000e+00  -2.7995986198304295e-03 -2.7142193299081827e-03 0.0000000000000000e+00  -2.7080718913560994e