<?xml version="1.0"?>
<VTKFile type="UnstructuredGrid"  version="0.1"  >
<UnstructuredGrid>
<Piece  NumberOfPoints="1331" NumberOfCells="6000">
<Points>
<DataArray  type="Float64"  NumberOfComponents="3"  format="ascii">-3.141592653589793 -3.141592653589793 -3.141592653589793  -2.513274122871834 -3.141592653589793 -3.141592653589793  -1.884955592153876 -3.141592653589793 -3.141592653589793  -1.256637061435917 -3.141592653589793 -3.141592653589793  -0.6283185307179586 -3.141592653589793 -3.141592653589793  0 -3.141592653589793 -3.141592653589793  0.6283185307179586 -3.141592653589793 -3.141592653589793  1.256637061435917 -3.141592653589793 -3.141592653589793  1.884955592153876 -3.141592653589793 -3.141592653589793  2.513274122871834 -3.141592653589793 -3.141592653589793  3.141592653589793 -3.141592653589793 -3.141592653589793  -3.141592653589793 -2.513274122871834 -3.141592653589793  -2.513274122871834 -2.513274122871834 -3.141592653589793  -1.884955592153876 -2.513274122871834 -3.141592653589793  -1.256637061435917 -2.513274122871834 -3.141592653589793  -0.6283185307179586 -2.513274122871834 -3.141592653589793  0 -2.513274122871834 -3.141592653589793  0.6283185307179586 -2.513274122871834 -3.141592653589793  1.256637061435917 -2.513274122871834 -3.141592653589793  1.884955592153876 -2.513274122871834 -3.141592653589793  2.513274122871834 -2.513274122871834 -3.141592653589793  3.141592653589793 -2.513274122871834 -3.141592653589793  -3.141592653589793 -1.884955592153876 -3.141592653589793  -2.513274122871834 -1.884955592153876 -3.141592653589793  -1.884955592153876 -1.884955592153876 -3.141592653589793  -1.256637061435917 -1.884955592153876 -3.141592653589793  -0.6283185307179586 -1.884955592153876 -3.141592653589793  0 -1.884955592153876 -3.141592653589793  0.6283185307179586 -1.884955592153876 -3.141592653589793  1.256637061435917 -1.884955592153876 -3.141592653589793  1.884955592153876 -1.884955592153876 -3.141592653589793  2.513274122871834 -1.884955592153876 -3.141592653589793  3.141592653589793 -1.884955592153876 -3.141592653589793  -3.141592653589793 -1.256637061435917 -3.141592653589793  -2.513274122871834 -1.256637061435917 -3.141592653589793  -1.884955592153876 -1.256637061435917 -3.141592653589793  -1.256637061435917 -1.256637061435917 -3.141592653589793  -0.6283185307179586 -1.256637061435917 -3.141592653589793  0 -1.256637061435917 -3.141592653589793  0.6283185307179586 -1.256637061435917 -3.141592653589793  1.256637061435917 -1.256637061435917 -3.141592653589793  1.884955592153876 -1.256637061435917 -3.141592653589793  2.513274122871834 -1.256637061435917 -3.141592653589793  3.141592653589793 -1.256637061435917 -3.141592653589793  -3.141592653589793 -0.6283185307179586 -3.141592653589793  -2.513274122871834 -0.6283185307179586 -3.141592653589793  -1.884955592153876 -0.6283185307179586 -3.141592653589793  -1.256637061435917 -0.6283185307179586 -3.141592653589793  -0.6283185307179586 -0.6283185307179586 -3.141592653589793  0 -0.6283185307179586 -3.141592653589793  0.6283185307179586 -0.6283185307179586 -3.141592653589793  1.256637061435917 -0.6283185307179586 -3.141592653589793  1.884955592153876 -0.6283185307179586 -3.141592653589793  2.513274122871834 -0.6283185307179586 -3.141592653589793  3.141592653589793 -0.6283185307179586 -3.141592653589793  -3.141592653589793 0 -3.141592653589793  -2.513274122871834 0 -3.141592653589793  -1.884955592153876 0 -3.141592653589793  -1.256637061435917 0 -3.141592653589793  -0.6283185307179586 0 -3.141592653589793  0 0 -3.141592653589793  0.6283185307179586 0 -3.141592653589793  1.256637061435917 0 -3.141592653589793  1.884955592153876 0 -3.141592653589793  2.513274122871834 0 -3.141592653589793  3.141592653589793 0 -3.141592653589793  -3.141592653589793 0.6283185307179586 -3.141592653589793  -2.513274122871834 0.6283185307179586 -3.141592653589793  -1.884955592153876 0.6283185307179586 -3.141592653589793  -1.256637061435917 0.6283185307179586 -3.141592653589793  -0.6283185307179586 0.6283185307179586 -3.141592653589793  0 0.6283185307179586 -3.141592653589793  0.6283185307179586 0.6283185307179586 -3.141592653589793  1.256637061435917 0.6283185307179586 -3.141592653589793  1.884955592153876 0.6283185307179586 -3.141592653589793  2.513274122871834 0.6283185307179586 -3.141592653589793  3.141592653589793 0.6283185307179586 -3.141592653589793  -3.141592653589793 1.256637061435917 -3.141592653589793  -2.513274122871834 1.256637061435917 -3.141592653589793  -1.884955592153876 1.256637061435917 -3.141592653589793  -1.256637061435917 1.256637061435917 -3.141592653589793  -0.6283185307179586 1.256637061435917 -3.141592653589793  0 1.256637061435917 -3.141592653589793  0.6283185307179586 1.256637061435917 -3.141592653589793  1.256637061435917 1.256637061435917 -3.141592653589793  1.884955592153876 1.256637061435917 -3.141592653589793  2.513274122871834 1.256637061435917 -3.141592653589793  3.141592653589793 1.256637061435917 -3.141592653589793  -3.141592653589793 1.884955592153876 -3.141592653589793  -2.513274122871834 1.884955592153876 -3.141592653589793  -1.884955592153876 1.884955592153876 -3.141592653589793  -1.256637061435917 1.884955592153876 -3.141592653589793  -0.6283185307179586 1.884955592153876 -3.141592653589793  0 1.884955592153876 -3.141592653589793  0.6283185307179586 1.884955592153876 -3.141592653589793  1.256637061435917 1.884955592153876 -3.141592653589793  1.884955592153876 1.884955592153876 -3.141592653589793  2.513274122871834 1.884955592153876 -3.141592653589793  3.141592653589793 1.884955592153876 -3.141592653589793  -3.141592653589793 2.513274122871834 -3.141592653589793  -2.513274122871834 2.513274122871834 -3.141592653589793  -1.884955592153876 2.513274122871834 -3.141592653589793  -1.256637061435917 2.513274122871834 -3.141592653589793  -0.6283185307179586 2.513274122871834 -3.141592653589793  0 2.513274122871834 -3.141592653589793  0.6283185307179586 2.513274122871834 -3.141592653589793  1.256637061435917 2.513274122871834 -3.141592653589793  1.884955592153876 2.513274122871834 -3.141592653589793  2.513274122871834 2.513274122871834 -3.141592653589793  3.141592653589793 2.513274122871834 -3.141592653589793  -3.141592653589793 3.141592653589793 -3.141592653589793  -2.513274122871834 3.141592653589793 -3.141592653589793  -1.884955592153876 3.141592653589793 -3.141592653589793  -1.256637061435917 3.141592653589793 -3.141592653589793  -0.6283185307179586 3.141592653589793 -3.141592653589793  0 3.141592653589793 -3.141592653589793  0.6283185307179586 3.141592653589793 -3.141592653589793  1.256637061435917 3.141592653589793 -3.141592653589793  1.884955592153876 3.141592653589793 -3.141592653589793  2.513274122871834 3.141592653589793 -3.141592653589793  3.141592653589793 3.141592653589793 -3.141592653589793  -3.141592653589793 -3.141592653589793 -2.513274122871834  -2.513274122871834 -3.141592653589793 -2.513274122871834  -1.884955592153876 -3.141592653589793 -2.513274122871834  -1.256637061435917 -3.141592653589793 -2.513274122871834  -0.6283185307179586 -3.141592653589793 -2.513274122871834  0 -3.141592653589793 -2.513274122871834  0.6283185307179586 -3.141592653589793 -2.513274122871834  1.256637061435917 -3.141592653589793 -2.513274122871834  1.884955592153876 -3.141592653589793 -2.513274122871834  2.513274122871834 -3.141592653589793 -2.513274122871834  3.141592653589793 -3.141592653589793 -2.513274122871834  -3.141592653589793 -2.513274122871834 -2.513274122871834  -2.513274122871834 -2.513274122871834 -2.513274122871834  -1.884955592153876 -2.513274122871834 -2.513274122871834  -1.256637061435917 -2.513274122871834 -2.513274122871834  -0.6283185307179586 -2.513274122871834 -2.513274122871834  0 -2.513274122871834 -2.513274122871834  0.6283185307179586 -2.513274122871834 -2.513274122871834  1.256637061435917 -2.513274122871834 -2.513274122871834  1.884955592153876 -2.513274122871834 -2.513274122871834  2.513274122871834 -2.513274122871834 -2.513274122871834  3.141592653589793 -2.513274122871834 -2.513274122871834  -3.141592653589793 -1.884955592153876 -2.513274122871834  -2.513274122871834 -1.884955592153876 -2.513274122871834  -1.884955592153876 -1.884955592153876 -2.513274122871834  -1.256637061435917 -1.884955592153876 -2.513274122871834  -0.6283185307179586 -1.884955592153876 -2.513274122871834  0 -1.884955592153876 -2.513274122871834  0.6283185307179586 -1.884955592153876 -2.513274122871834  1.256637061435917 -1.884955592153876 -2.513274122871834  1.884955592153876 -1.884955592153876 -2.513274122871834  2.513274122871834 -1.884955592153876 -2.513274122871834  3.141592653589793 -1.884955592153876 -2.513274122871834  -3.141592653589793 -1.256637061435917 -2.513274122871834  -2.513274122871834 -1.256637061435917 -2.513274122871834  -1.884955592153876 -1.256637061435917 -2.513274122871834  -1.256637061435917 -1.256637061435917 -2.513274122871834  -0.6283185307179586 -1.256637061435917 -2.513274122871834  0 -1.256637061435917 -2.513274122871834  0.6283185307179586 -1.256637061435917 -2.513274122871834  1.256637061435917 -1.256637061435917 -2.513274122871834  1.884955592153876 -1.256637061435917 -2.513274122871834  2.513274122871834 -1.256637061435917 -2.513274122871834  3.141592653589793 -1.256637061435917 -2.513274122871834  -3.141592653589793 -0.6283185307179586 -2.513274122871834  -2.513274122871834 -0.6283185307179586 -2.513274122871834  -1.884955592153876 -0.6283185307179586 -2.513274122871834  -1.256637061435917 -0.6283185307179586 -2.513274122871834  -0.6283185307179586 -0.6283185307179586 -2.513274122871834  0 -0.6283185307179586 -2.513274122871834  0.6283185307179586 -0.6283185307179586 -2.513274122871834  1.256637061435917 -0.6283185307179586 -2.513274122871834  1.884955592153876 -0.6283185307179586 -2.513274122871834  2.513274122871834 -0.6283185307179586 -2.513274122871834  3.141592653589793 -0.6283185307179586 -2.513274122871834  -3.141592653589793 0 -2.513274122871834  -2.513274122871834 0 -2.513274122871834  -1.884955592153876 
[...]
<PointData  Vectors="f_11"> 
<DataArray  type="Float64"  Name="f_11"  NumberOfComponents="3" format="ascii">-3.8327260075185404e-15 2.5882609927836692e-16 1.7168866718136341e-17  -1.5311973399744874e-01 1.2750402559882424e-04 5.9187207026681788e-04  -2.1426145003992136e-01 3.8132001246657686e-04 1.3708757068334894e-03  -1.9331294441937527e-01 3.9708220788145396e-04 1.5011071449316121e-03  -1.1341540928838434e-01 1.4747063709852229e-04 1.0289416729003897e-03  1.4605625300870421e-16 -5.0079731781385283e-15 1.1133466563837213e-16  1.1341540928838403e-01 -1.4747063710687452e-04 -1.0289416729002314e-03  1.9331294441937411e-01 -3.9708220788649718e-04 -1.5011071449316155e-03  2.1426145003991456e-01 -3.8132001246922155e-04 -1.3708757068334547e-03  1.5311973399744228e-01 -1.2750402559942838e-04 -5.9187207026678416e-04  -3.8327260075185404e-15 2.5882609927836692e-16 1.7168866718136341e-17  -1.4747063710619603e-04 1.1341540928838362e-01 -1.0289416729003036e-03  -1.2446750729111852e-01 8.3498660846702169e-02 -3.2694035044837844e-04  -1.6923829841022275e-01 1.7655551221619915e-02 7.7714067767274252e-04  -1.4690101408482958e-01 -5.8207042488222331e-02 1.3676627228888238e-03  -8.3296948800250264e-02 -1.2498851243969741e-01 1.3167543315199548e-03  1.2750402559864502e-04 -1.5311973399744869e-01 5.9187207026689919e-04  8.3498660846701739e-02 -1.2446750729111991e-01 -3.2694035044832803e-04  1.4763075018357791e-01 -5.8014405407845013e-02 -1.0324016557835358e-03  1.7034973029777509e-01 1.7384996757801849e-02 -1.5115594978449241e-03  1.2498851243968838e-01 8.3296948800249293e-02 -1.3167543315199476e-03  -1.4747063710619603e-04 1.1341540928838362e-01 -1.0289416729003036e-03  -3.9708220788628337e-04 1.9331294441937349e-01 -1.5011071449316932e-03  -5.8014405407844513e-02 1.4763075018357755e-01 -1.0324016557835816e-03  -6.8313770314145233e-02 4.5927254300305240e-02 2.9845199357266870e-05  -4.5498823700864145e-02 -6.9100840117313142e-02 9.4389130295107360e-04  -1.7384996757802654e-02 -1.7034973029778042e-01 1.5115594978448858e-03  3.8132001246682595e-04 -2.1426145003992092e-01 1.3708757068334617e-03  1.7655551221620002e-02 -1.6923829841022420e-01 7.7714067767272366e-04  4.5927254300306017e-02 -6.8313770314145927e-02 2.9845199357285105e-05  6.9100840117308382e-02 4.5498823700864076e-02 -9.4389130295117487e-04  5.8207042488217162e-02 1.4690101408482936e-01 -1.3676627228889351e-03  -3.9708220788628337e-04 1.9331294441937349e-01 -1.5011071449316932e-03  -3.8132001246908586e-04 2.1426145003991701e-01 -1.3708757068335374e-03  1.7384996757802088e-02 1.7034973029777517e-01 -1.5115594978450937e-03  4.5498823700864152e-02 6.9100840117308326e-02 -9.4389130295120967e-04  6.8313770314145247e-02 -4.5927254300309445e-02 -2.9845199357532347e-05  5.8014405407842688e-02 -1.4763075018358118e-01 1.0324016557834370e-03  3.9708220788180958e-04 -1.9331294441937591e-01 1.5011071449315850e-03  -5.8207042488222380e-02 -1.4690101408483022e-01 1.3676627228887807e-03  -6.9100840117312767e-02 -4.5498823700864700e-02 9.4389130295089959e-04  -4.5927254300309132e-02 6.8313770314144678e-02 -2.9845199357522426e-05  -1.7655551221623239e-02 1.6923829841022153e-01 -7.7714067767285029e-04  -3.8132001246908586e-04 2.1426145003991701e-01 -1.3708757068335374e-03  -1.2750402559939090e-04 1.5311973399744219e-01 -5.9187207026686038e-04  8.3296948800250084e-02 1.2498851243969045e-01 -1.3167543315200233e-03  1.4690101408482886e-01 5.8207042488216842e-02 -1.3676627228888997e-03  1.6923829841022242e-01 -1.7655551221623499e-02 -7.7714067767283804e-04  1.2446750729111396e-01 -8.3498660846704029e-02 3.2694035044839715e-04  1.4747063709974638e-04 -1.1341540928838437e-01 1.0289416729003010e-03  -1.2498851243969709e-01 -8.3296948800250570e-02 1.3167543315199209e-03  -1.7034973029778017e-01 -1.7384996757802879e-02 1.5115594978447678e-03  -1.4763075018358096e-01 5.8014405407842314e-02 1.0324016557833465e-03  -8.3498660846704389e-02 1.2446750729111476e-01 3.2694035044833161e-04  -1.2750402559939090e-04 1.5311973399744219e-01 -5.9187207026686038e-04  -6.1628553216159378e-17 -4.4685665534892917e-15 3.5455325958105063e-17  1.1341540928838356e-01 -1.4747063710709155e-04 -1.0289416729002939e-03  1.9331294441937444e-01 -3.9708220788683794e-04 -1.5011071449315639e-03  2.1426145003991659e-01 -3.8132001246933285e-04 -1.3708757068334996e-03  1.5311973399744189e-01 -1.2750402559957052e-04 -5.9187207026691014e-04  -3.7456866688145615e-15 7.2383678981736354e-17 -1.0994820956584311e-17  -1.5311973399744874e-01 1.2750402559866212e-04 5.9187207026678925e-04  -2.1426145003992100e-01 3.8132001246691800e-04 1.3708757068333377e-03  -1.9331294441937669e-01 3.9708220788161892e-04 1.5011071449314746e-03  -1.1341540928838360e-01 1.4747063709946389e-04 1.0289416729002514e-03  -6.1628553216159378e-17 -4.4685665534892917e-15 3.5455325958105063e-17  1.2750402559871048e-04 -1.5311973399744977e-01 5.9187207026686287e-04  8.3498660846701961e-02 -1.2446750729111979e-01 -3.2694035044840978e-04  1.4763075018357830e-01 -5.8014405407845415e-02 -1.0324016557834424e-03  1.7034973029777498e-01 1.7384996757801620e-02 -1.5115594978449144e-03  1.2498851243968945e-01 8.3296948800250278e-02 -1.3167543315200302e-03  -1.4747063710657802e-04 1.1341540928838277e-01 -1.0289416729003999e-03  -1.2446750729111905e-01 8.3498660846701725e-02 -3.2694035044847673e-04  -1.6923829841022361e-01 1.7655551221619811e-02 7.7714067767263736e-04  -1.4690101408483014e-01 -5.8207042488222484e-02 1.3676627228887577e-03  -8.3296948800250140e-02 -1.2498851243969603e-01 1.3167543315199539e-03  1.2750402559871048e-04 -1.5311973399744977e-01 5.9187207026686287e-04  3.8132001246673222e-04 -2.1426145003992089e-01 1.3708757068335562e-03  1.7655551221619676e-02 -1.6923829841022617e-01 7.7714067767278090e-04  4.5927254300304761e-02 -6.8313770314146344e-02 2.9845199357293843e-05  6.9100840117306883e-02 4.5498823700864000e-02 -9.4389130295098145e-04  5.8207042488216329e-02 1.4690101408483056e-01 -1.3676627228888438e-03  -3.9708220788685545e-04 1.9331294441937422e-01 -1.5011071449316975e-03  -5.8014405407844916e-02 1.4763075018357763e-01 -1.0324016557836167e-03  -6.8313770314146052e-02 4.5927254300304962e-02 2.9845199357233588e-05  -4.5498823700864333e-02 -6.9100840117312545e-02 9.4389130295098730e-04  -1.7384996757802827e-02 -1.7034973029777878e-01 1.5115594978449309e-03  3.8132001246673222e-04 -2.1426145003992089e-01 1.3708757068335562e-03  3.9708220788148789e-04 -1.9331294441937530e-01 1.5011071449316695e-03  -5.8207042488222671e-02 -1.4690101408483053e-01 1.3676627228888451e-03  -6.9100840117312878e-02 -4.5498823700864638e-02 9.4389130295111383e-04  -4.5927254300309313e-02 6.8313770314144678e-02 -2.9845199357335903e-05  -1.7655551221623839e-02 1.6923829841022250e-01 -7.7714067767274241e-04  -3.8132001246945639e-04 2.1426145003991423e-01 -1.3708757068334630e-03  1.7384996757801766e-02 1.7034973029777523e-01 -1.5115594978449621e-03  4.5498823700863951e-02 6.9100840117308035e-02 -9.4389130295112792e-04  6.8313770314144762e-02 -4.5927254300309008e-02 -2.9845199357435802e-05  5.8014405407841869e-02 -1.4763075018358116e-01 1.0324016557835170e-03  3.9708220788148789e-04 -1.9331294441937530e-01 1.5011071449316695e-03  1.4747063709958624e-04 -1.1341540928838334e-01 1.0289416729003266e-03  -1.2498851243969684e-01 -8.3296948800250362e-02 1.3167543315199637e-03  -1.7034973029778033e-01 -1.7384996757803126e-02 1.5115594978449296e-03  -1.4763075018358024e-01 5.8014405407842161e-02 1.0324016557835946e-03  -8.3498660846704001e-02 1.2446750729111369e-01 3.2694035044847244e-04  -1.2750402559954209e-04 1.5311973399744205e-01 -5.9187207026671369e-04  8.3296948800250403e-02 1.2498851243968954e-01 -1.3167543315198600e-03  1.4690101408482892e-01 5.8207042488216808e-02 -1.3676627228888523e-03  1.6923829841022087e-01 -1.7655551221623454e-02 -7.7714067767281625e-04  1.2446750729111426e-01 -8.3498660846703682e-02 3.2694035044835665e-04  1.4747063709958624e-04 -1.1341540928838334e-01 1.0289416729003266e-03  -3.8327260075185404e-15 2.5882609927836692e-16 1.7168866718136341e-17  -1.5311973399744874e-01 1.2750402559882424e-04 5.9187207026681788e-04  -2.1426145003992136e-01 3.8132001246657686e-04 1.3708757068334894e-03  -1.9331294441937527e-01 3.9708220788145396e-04 1.5011071449316121e-03  -1.1341540928838434e-01 1.4747063709852229e-04 1.0289416729003897e-03  1.4605625300870421e-16 -5.0079731781385283e-15 1.1133466563837213e-16  1.1341540928838403e-01 -1.4747063710687452e-04 -1.0289416729002314e-03  1.9331294441937411e-01 -3.9708220788649718e-04 -1.5011071449316155e-03  2.1426145003991456e-01 -3.8132001246922155e-04 -1.3708757068334547e-03  1.5311973399744228e-01 -1.2750402559942838e-04 -5.9187207026678416e-04  -3.8327260075185404e-15 2.5882609927836692e-16 1.7168866718136341e-17  -1.8913310516896961e-03 -8.2746461045718922e-04 3.2393197001145312e-02  -1.1800784814451772e-01 -6.1388817429580710e-04 1.6064148625241328e-02  -1.7423112047845801e-01 -6.0394829216954939e-04 1.6616131458871740e-03  -1.6630526180078103e-01 -1.0387628170290646e-03 1.0863878009534729e-02  -1.0149325361504698e-01 -1.6424035743321252e-03 2.6104219911741992e-02  -8.2746461045726154e-04 -1.8913310516902812e-03 3.2393197001145575e-02  1.0080572823699159e-01 -1.7729701764696798e-03 2.5286855193123035e-02  1.6740512221069753e-01 -1.5287417760479903e-03 9.0867340085790272e-03  1.7532119707264548e-01 -1.1904789051998580e-03 -8.7965511599206688e-04  1.1637021282938226e-01 -9.2798329076359425e-04 1.4109583677023099e-02  -1.8913310516896961e-03 -8.2746461045718922e-04 3.2393197001145312e-02  -1.7729701764686448e-03 1.0080572823699187e-01 2.5286855193122862e-02  -9.4304524145813820e-02 7.7206197145483269e-02 8.7769123965076735e-03  -1.3711455973230252e-01 2.3621669352476973e-02 -9.3480942923400943e-03  -1.2873867476254602e-01 -3.9244412064038635e-02 -4.8200216038980564e-03  -7.7608282216265756e-02 -9.4766043194805236e-02 9.2442798848385820e-03  -6.1388817429594512e-04 -1.1800784814451930e-01 1.6064148625241321e-02  7.7206197145483671e-02 -9.4304524145815125e-02 8.7769123965077463e-03  1.3011337145737284e-01 -3.9059120698081901e-02 -5.9834065481586800e-03  1.3861704359092375e-01 2.3074381606537124e-02 -1.1460735078162481e-02  9.3173345047458597e-02 7.6473718129020332e-02 6.9014520302792806e-03  -1.7729701764686448e-03 1.0080572823699187e-01 2.5286855193122862e-02  -1.5287417760475887e-03 1.6740512221069895e-01 9.0867340085789006e-03  -3.9059120698081547e-02 1.3011337145737273e-01 -5.9834065481587260e-03  -5.2192470264045158e-02 4.5026305941019661e-02 -2.6779843113557800e-02  -4.4380506361700017e-02 -5.2080139102968027e-02 -2.6351873949638033e-02  -2.4276678837894618e-02 -1.3732430144624655e-01 -9.1327630404893310e-03  -6.0394829216949355e-04 -1.7423112047846018e-01 1.6616131458870175e-03  2.3621669352476723e-02 -1.3711455973230377e-01 -9.3480942923401689e-03  4.5026305941019459e-02 -5.2192470264045908e-02 -2.6779843113558036e-02  5.2977278631787361e-02 4.3930860037652474e-02 -2.7876712367298110e-02  3.7972965127375573e-02 1.2876941519914414e-01 -7.1246773257423795e-03  -1.5287417760475887e-03 1.6740512221069895e-01 9.0867340085789006e-03  -1.1904789051997691e-03 1.7532119707264499e-01 -8.7965511599210722e-04  2.3074381606537509e-02 1.3861704359092317e-01 -1.1460735078162459e-02  4.3930860037652515e-02 5.2977278631787167e-02 -2.7876712367297940e-02  5.1868728392948503e-02 -4.3854632361853038e-02 -2.7270993540344075e-02  3.7767961107163121e-02 -1.2842283847640271e-01 -5.2872196166821950e-03  -1.0387628170286636e-03 -1.6630526180077890e-01 1.0863878009534509e-02  -3.9244412064038600e-02 -1.2873867476254686e-01 -4.8200216038981128e-03  -5.2080139102968423e-02 -4.4380506361700253e-02 -2.6351873949638244e-02  -4.3854632361853219e-02 5.1868728392947525e-02 -2.7270993540344349e-02  -2.4150628308943344e-02 1.3736931900213273e-01 -1.1342475831234516e-02  -1.1904789051997691e-03 1.7532119707264499e-01 -8.7965511599210722e-04  -9.2798329076371569e-04 1.1637021282938284e-01 1.4109583677023370e-02  7.6473718129020637e-02 9.3173345047458361e-02 6.9014520302794185e-03  1.2876941519914475e-01 3.7972965127375212e-02 -7.1246773257422147e-03  1.3736931900213334e-01 -2.4150628308943475e-02 -1.1342475831234398e-02  9.2774671968120434e-02 -7.7363665825617656e-02 7.8370818551064848e-03  -1.6424035743315974e-03 -1.0149325361504734e-01 2.6104219911741989e-02  -9.4766043194805055e-02 -7.7608282216266186e-02 9.2442798848386826e-03  -1.3732430144624697e-01 -2.4276678837894874e-02 -9.1327630404892807e-03  -1.2842283847640290e-01 3.7767961107162983e-02 -5.2872196166823034e-03  -7.7363665825618169e-02 9.2774671968120295e-02 7.8370818551065091e-03  -9.2798329076371569e-04 1.1637021282938284e-01 1.4109583677023370e-02  -8.2746461045737170e-04 -1.8913310516901994e-03 3.2393197001145457e-02  1.0080572823699155e-01 -1.7729701764698210e-03 2.5286855193123084e-02  1.6740512221069861e-01 -1.5287417760482952e-03 9.0867340085792475e-03  1.7532119707264660e-01 -1.1904789051999395e-03 -8.7965511599190349e-04  1.1637021282938220e-01 -9.2798329076370517e-04 1.4109583677023330e-02  -1.8913310516898056e-03 -8.2746461045734698e-04 3.2393197001145457e-02  -1.1800784814451894e-01 -6.1388817429582434e-04 1.6064148625241366e-02  -1.7423112047845787e-01 -6.0394829216944281e-04 1.6616131458870522e-03  -1.6630526180078037e-01 -1.0387628170288581e-03 1.0863878009534625e-02  -1.0149325361504813e-01 -1.6424035743320333e-03 2.6104219911741909e-02  -8.2746461045737170e-04 -1.8913310516901994e-03 3.2393197001145457e-02  -6.1388817429595694e-04 -1.1800784814451955e-01 1.6064148625241428e-02  7.7206197145483435e-02 -9.4304524145816221e-02 8.7769123965078105e-03  1.3011337145737220e-01 -3.9059120698082407e-02 -5.9834065481586150e-03  1.3861704359092439e-01 2.3074381606537006e-02 -1.1460735078162376e-02  9.3173345047458500e-02 7.6473718129020221e-02 6.9014520302793829e-03  -1.7729701764692548e-03 1.0080572823699113e-01 2.5286855193123008e-02  -9.4304524145815763e-02 7.7206197145483282e-02 8.7769123965077342e-03  -1.3711455973230416e-01 2.3621669352476681e-02 -9.3480942923402331e-03  -1.2873867476254605e-01 -3.9244412064038697e-02 -4.8200216038981085e-03  -7.7608282216266256e-02 -9.4766043194805361e-02 9.2442798848386479e-03  -6.1388817429595694e-04 -1.1800784814451955e-01 1.6064148625241428e-02  -6.0394829216949323e-04 -1.7423112047846123e-01 1.6616131458870927e-03  2.3621669352476515e-02 -1.3711455973230496e-01 -9.3480942923400978e-03  4.5026305941019036e-02 -5.2192470264046234e-02 -2.6779843113557810e-02  5.2977278631786778e-02 4.3930860037652224e-02 -2.7876712367297916e-02  3.7972965127375059e-02 1.2876941519914423e-01 -7.1246773257421948e-03  -1.5287417760481406e-03 1.6740512221069925e-01 9.0867340085791452e-03  -3.9059120698082102e-02 1.3011337145737270e-01 -5.9834065481587130e-03  -5.2192470264045762e-02 4.5026305941019668e-02 -2.6779843113557938e-02  -4.4380506361700309e-02 -5.2080139102968610e-02 -2.6351873949638345e-02  -2.4276678837894961e-02 -1.3732430144624722e-01 -9.1327630404892338e-03  -6.0394829216949323e-04 -1.7423112047846123e-01 1.6616131458870927e-03  -1.0387628170287673e-03 -1.6630526180078239e-01 1.0863878009534676e-02  -3.9244412064038829e-02 -1.2873867476254700e-01 -4.8200216038980677e-03  -5.2080139102968867e-02 -4.4380506361700475e-02 -2.6351873949638203e-02  -4.3854632361853281e-02 5.1868728392948142e-02 -2.7270993540344082e-02  -2.4150628308943656e-02 1.3736931900213323e-01 -1.1342475831234286e-02  -1.1904789051999545e-03 1.7532119707264551e-01 -8.7965511599194599e-04  2.3074381606537148e-02 1.3861704359092381e-01 -1.1460735078162362e-02  4.3930860037652522e-02 5.2977278631787049e-02 -2.7876712367298117e-02  5.1868728392947996e-02 -4.3854632361852955e-02 -2.7270993540344155e-02  3.7767961107163447e-02 -1.2842283847640368e-01 -5.2872196166822210e-03  -1.0387628170287673e-03 -1.6630526180078239e-01 1.0863878009534676e-02  -1.6424035743318540e-03 -1.0149325361504698e-01 2.6104219911741857e-02  -9.4766043194805277e-02 -7.7608282216266505e-02 9.2442798848386756e-03  -1.3732430144624694e-01 -2.4276678837895180e-02 -9.1327630404892026e-03  -1.2842283847640332e-01 3.7767961107163066e-02 -5.2872196166821508e-03  -7.7363665825617642e-02 9.2774671968120073e-02 7.8370818551066045e-03  -9.2798329076375938e-04 1.1637021282938238e-01 1.4109583677023436e-02  7.6473718129020554e-02 9.3173345047458250e-02 6.9014520302794246e-03  1.2876941519914409e-01 3.7972965127374712e-02 -7.1246773257422217e-03  1.3736931900213237e-01 -2.4150628308943496e-02 -1.1342475831234483e-02  9.2774671968120698e-02 -7.7363665825618391e-02 7.8370818551064814e-03  -1.6424035743318540e-03 -1.0149325361504698e-01 2.6104219911741857e-02  -1.8913310516896961e-03 -8.2746461045718922e-04 3.2393197001145312e-02  -1.1800784814451772e-01 -6.1388817429580710e-04 1.6064148625241328e-02  -1.7423112047845801e-01 -6.0394829216954939e-04 1.6616131458871740e-03  -1.6630526180078103e-01 -1.0387628170290646e-03 1.0863878009534729e-02  -1.0149325361504698e-01 -1.6424035743321252e-03 2.6104219911741992e-02  -8.2746461045726154e-04 -1.8913310516902812e-03 3.2393197001145575e-02  1.0080572823699159e-01 -1.7729701764696798e-03 2.5286855193123035e-02  1.6740512221069753e-01 -1.5287417760479903e-03 9.0867340085790272e-03  1.7532119707264548e-01 -1.1904789051998580e-03 -8.7965511599206688e-04  1.1637021282938226e-01 -9.2798329076359425e-04 1.4109583677023099e-02  -1.8913310516896961e-03 -8.2746461045718922e-04 3.2393197001145312e-02  -1.6327928851760502e-03 -1.2799981492900476e-04 2.1385075384522279e-02  -2.9544971233724546e-02 -5.2142603258887088e-05 1.0294303660500900e-02  -6.0264784392900839e-02 -3.5132111270095255e-04 -4.7368542647732698e-04  -7.7535555173573398e-02 -9.5797302065503789e-04 7.0879803120141660e-03  -5.6233010610790037e-02 -1.4955919093151148e-03 1.7378489610313873e-02  -1.2799981492899265e-04 -1.6327928851763540e-03 2.1385075384522504e-02  5.6429656390911728e-02 -1.3689538364004749e-03 1.9098560798655840e-02  7.8562887397051279e-02 -9.8159690301728936e-04 7.8234596707975647e-03  6.0444179397442267e-02 -6.5792064341317082e-04 -2.5605156214140879e-03  2.7753787041518610e-02 -3.6119348595900925e-04 7.3522020026792626e-03  -1.6327928851760502e-03 -1.2799981492900476e-04 2.1385075384522279e-02  -1.3689538364000968e-03 5.6429656390911617e-02 1.9098560798655715e-02  -2.0748694298458839e-02 4.7469039703288571e-02 8.0009363225067992e-03  -4.6136228177750441e-02 2.6531503250026327e-02 -5.3289399372796137e-03  -6.2995471155406907e-02 1.6577910847922195e-03 -2.0934085166208869e-03  -4.7186903497724662e-02 -2.0371122167127307e-02 6.3113117624205737e-03  -5.2142603258976494e-05 -2.9544971233725046e-02 1.0294303660500844e-02  4.7469039703288453e-02 -2.0748694298459065e-02 8.0009363225068703e-03  6.3962755022141007e-02 1.2606902312566931e-03 -1.2380089446067052e-03  4.6480242873532598e-02 2.5745137145126287e-02 -7.1832770682884123e-03  1.9471731021182614e-02 4.6422842945207106e-02 5.2243793548343472e-03  -1.3689538364000968e-03 5.6429656390911617e-02 1.9098560798655715e-02  -9.8159690301740364e-04 7.8562887397051348e-02 7.8234596707973652e-03  1.2606902312566584e-03 6.3962755022141438e-02 -1.2380089446068882e-03  -1.1497254999835090e-02 2.9347688637467770e-02 -1.5078562519276115e-02  -2.8948482548706637e-02 -1.0247466678765520e-02 -1.5842309257757724e-02  -2.6816130502702016e-02 -4.4956843760336998e-02 -6.7215288049453622e-03  -3.5132111270093114e-04 -6.0264784392900929e-02 -4.7368542647757000e-04  2.6531503250025949e-02 -4.6136228177750441e-02 -5.3289399372797100e-03  2.9347688637467739e-02 -1.1497254999835331e-02 -1.5078562519276121e-02  1.1692524284666616e-02 2.7876225430198093e-02 -1.6405124475466080e-02  -2.1306399614878023e-03 6.2310241719796988e-02 -3.3438775350591952e-03  -9.8159690301740364e-04 7.8562887397051348e-02 7.8234596707973652e-03  -6.5792064341319836e-04 6.0444179397441594e-02 -2.5605156214140961e-03  2.5745137145126312e-02 4.6480242873532529e-02 -7.1832770682884288e-03  2.7876225430198021e-02 1.1692524284666675e-02 -1.6405124