<?xml version="1.0"?>
<VTKFile type="UnstructuredGrid"  version="0.1"  >
<UnstructuredGrid>
<Piece  NumberOfPoints="1380" NumberOfCells="2630">
<Points>
<DataArray  type="Float64"  NumberOfComponents="3"  format="ascii">-1 -1 0  1 -1 0  1 1 0  -1 1 0  0 -1 0  1 0 0  0 1 0  -1 0 0  0 0 0  -1 -0.5 0  -0.5 -1 0  -0.5 1 0  -1 0.5 0  1 -0.5 0  0.5 -1 0  1 0.5 0  0.5 1 0  0.4166666666666666 -0.4166666666666667 0  -0.4166666666666667 0.4166666666666667 0  -0.25 -0.5 0  0.5 0.25 0  -0.4861111111111112 -0.06944444444444445 0  0.0732758620689655 0.507183908045977 0  -0.625 -0.625 0  0.625 0.625 0  0.7380952380952381 -0.25 0  -0.7099116161616161 0.2105429292929293 0  -0.25 0.7380952380952381 0  0.105392156862745 -0.6348039215686275 0  0.6770833333333334 -0.6770833333333333 0  -0.6770833333333334 0.6770833333333334 0  0.3472222222222222 -0.06944444444444446 0  -0.7264957264957265 -0.3044871794871795 0  0.3141940982507127 0.7297313660835709 0  0.02049587951122483 -0.3227479397556124 0  -0.2690972222222223 0.1475694444444444 0  0.3859500089908372 -0.7274430156831472 0  -0.2228477945123298 -0.1761765495248019 0  0.2182539682539683 0.1884920634920635 0  0.75 0.375 0  -0.145442219440968 -0.7602211097204841 0  0.7088913690476191 0.0427827380952381 0  -0.75 -1 0  -1 -0.75 0  1 0.75 0  0.75 1 0  -0.7439982703698937 -0.04614153195464455 0  -0.4609235096577606 -0.3356498099556895 0  0.4063134471431929 0.4895621842856023 0  0.25 -1 0  -0.25 -1 0  -0.75 1 0  0.75 -1 0  -1 -0.25 0  -1 0.25 0  1 -0.25 0  -0.25 1 0  1 -0.75 0  -1 0.75 0  0.25 1 0  1 0.25 0  -0.4041423272138783 -0.7597141090712928 0  0.06500839607911253 0.7578103030529481 0  -0.1572801182352047 0.3838997021864289 0  -0.6528005242053915 0.4409494757946086 0  -0.4930160984848485 0.1544744318181818 0  -0.4732142857142858 0.7752976190476191 0  0.6398809523809523 -0.4538690476190476 0  0.5166054117396399 -0.2161233620965164 0  -0.002273787244753427 0.2232363985975174 0  0.1500564496765022 -0.1524955293952667 0  0.2016720420046758 -0.4410343282803009 0  -0.08495178036419618 0.6274139771124571 0  -0.8367311471133162 0.3642591720794645 0  -0.8333333333333334 -0.625 0  -0.594323836800685 -0.8231079456002283 0  -0.4466957714776065 -0.5349126855671806 0  0.8125 0.5625 0  0.78125 0.78125 0  0.5091392650016769 0.7947130883338923 0  0.125 -0.8382681931833136 0  -0.8184523809523809 -0.8184523809523809 0  -0.07781530426104531 -0.5819319697006881 0  0.5085055196703295 0.04967610411902112 0  0.2918471072074933 -0.276017202318847 0  0.5120763537765269 -0.5898771553229597 0  0.625 -0.8585349462365591 0  0.8158532234335381 -0.8158532234335381 0  -0.5198088446315396 0.5739411553684605 0  -0.8585349462365591 0.625 0  -0.8150493805516597 0.8156205699829586 0  0.8585349462365591 -0.625 0  -0.2688268348649726 0.5439331383603209 0  0.8242100426758139 -0.4436043596336612 0  0.5833756314287952 0.4479378157143976 0  0.8690476190476191 -0.125 0  -0.125 0.8690476190476191 0  -0.8692745600729823 0.125 0  0.8696725120759167 0.125 0  -0.625 0.8711516477451908 0  0.2339522463269718 0.3879558377955778 0  0.2453709502295031 0.5655822922838026 0  0.1730610651637797 0.02021709580868947 0  0.3245402594056757 -0.5644672020485209 0  -0.7291666666666666 -0.4816595441595442 0  -1 -0.375 0  -0.5811140848639904 -0.2127276307675001 0  0.673332592838314 0.2158348143233718 0  0.375 1 0  -0.5714768890989919 0.2985103444040069 0  -1 -0.125 0  -0.8453692574786325 -0.1875 0  -0.3144549134065865 -0.02408675326008025 0  -0.2898414972096258 -0.3336092734780093 0  -0.1075052092206287 -0.4224330421314983 0  -0.05043970703604117 -0.1652278959397459 0  0.6459672950297897 -0.1113415301525317 0  0.4645210271029513 0.6398480556579343 0  0.3512863754411909 0.0937979496253573 0  -0.6063160985568274 0.03891469652249891 0  -0.3428819444444445 0.8690476190476191 0  0.625 1 0  -0.1602164796159982 0.02697860906625157 0  0.04648110064133829 -0.4808416424239687 0  1 0.875 0  -0.3836102479201657 0.6484936449177356 0  -0.3776011723096096 0.263078478984336 0  -0.6024978259969829 -0.3949628096211138 0  0.125 1 0  0.2010781308272777 0.8456221018461906 0  0.2822509696388829 -0.845902544691141 0  -0.3285533674953515 -0.6289773550938936 0  0.3461306793221754 0.278777492464833 0  0.4737475672408696 -0.8508448959534423 0  0.2384632828836344 -0.7029523187242811 0  -0.004777287059791593 0.3759269695907358 0  -0.8499735021850066 -0.3912320205328522 0  0.1222536293721587 0.2963971539625205 0  -0.3769456520999688 -0.203572526805711 0  -0.2749617205755651 -0.8464290792698902 0  0.004805888512766143 -0.747174355248311 0  -0.125 -1 0  -0.06001061822252458 -0.8724007765244854 0  0.875 0.4375 0  0.854421179608893 0.271342359217786 0  0.875 1 0  -0.1499861095763589 0.2358309656934888 0  0.3381943639137225 0.8663061796405532 0  -0.7853090110442228 0.4998412775277108 0  0.7398165998560814 -0.5535192694951373 0  0.1580042122341573 -0.3100246140259917 0  -0.7291666666666667 -0.7142857142857142 0  -0.375 -1 0  0.6483368386154684 0.8514905990110488 0  -0.1295370103291928 -0.2826118305021242 0  0.07458201853700455 0.1123894386563915 0  0.6146465857036327 -0.3161203659316075 0  0.5551898493894731 -0.740296118159085 0  0.375 -1 0  0.482702798370208 -0.084133350091034 0  0.87890625 0.68359375 0  -0.05917195534525846 0.4971092425697621 0  0.1260710309213975 0.6343750312956699 0  0.8690476190476191 -0.3077066815262848 0  -0.2912010232560567 0.3668168386732139 0  -0.875 1 0  -1 0.875 0  1 -0.875 0  0.875 -1 0  -0.8689564281364567 -0.006189266075306407 0  -0.7449425635110547 0.08458938160051771 0  -0.7150266761936593 -0.1739444581417552 0  -0.5260034831318311 -0.711099823962112 0  -0.4724626808827322 -0.871722230709409 0  0.4734436795977052 0.377714794132168 0  -0.875 -1 0  -1 -0.875 0  0.6927189078571988 0.5156567235715964 0  -0.3742497615796874 -0.4296005251260107 0  -0.1969436423297711 -0.6387157229772615 0  -0.6179496409766825 -0.08933356056510935 0  -0.424405057115988 0.04452428810878029 0  -0.08479048335844169 0.1279607007132633 0  0.003830300099055113 0.8712085230656206 0  0.8748778838820267 -1.379218479898026e-05 0  -0.375 1 0  -0.625 1 0  1 0.125 0  -0.125 1 0  1 -0.375 0  1 -0.125 0  1 -0.625 0  0.625 -1 0  0.125 -1 0  -0.625 -1 0  -1 -0.625 0  -1 0.125 0  -1 0.375 0  -1 0.625 0  1 0.375 0  1 0.625 0  0.6325660748712082 0.3335187599557389 0  -0.06420945895056573 0.7549874027425891 0  -0.8769015540914771 0.2478802253893416 0  0.871875 0.871875 0  -0.6868091492840067 0.3270978624973681 0  -0.5363597469565949 0.412994850055505 0  -0.6803734992638302 0.5574295000651103 0  -0.7076253581162534 -0.8803439094224437 0  -0.8778089002295137 -0.5106896447504627 0  -0.3860184984222981 0.530566778071246 0  0.6109900617121508 0.1128453077697081 0  0.3896945134930274 -0.1915382873255086 0  0.7605656944697778 -0.06822134873122943 0  0.3576151269893478 0.5948388411612135 0  -0.5689902680792265 -0.5143596830118065 0  0.6262446286847614 -0.5735657901943212 0  0.2030558252325225 -0.5625263842513452 0  0.6123273142928579 0.7407533260723429 0  0.4016460890123554 -0.3042863223111857 0  -0.59039693199147 0.7578418819188018 0  0.7276932493917544 -0.3705808024528924 0  0.5222536818742854 -0.4713886230400014 0  -0.5101986527137737 0.8848365765607674 0  0.510560172809238 0.5356013299918891 0  -0.3603569195756083 0.75823710606415 0  0.1967279277813232 0.728226870058472 0  -0.6086880986371127 0.1545624071548516 0  -0.38105366729386 0.1511189987807864 0  -0.2944659463671584 -0.7359061804869591 0  0.5060729154966499 -0.3475227845833823 0  -0.09281616240412746 -0.06197858250969457 0  0.7649739583333334 0.6673177083333334 0  0.7628906249999999 0.890234375 0  -0.2666864184909611 0.2585504071132311 0  0.3635064892129658 0.3878003602709461 0  -0.2339409722222222 0.8901937905844155 0  -0.1718792125974916 -0.8957733325456778 0  0.1001768566329531 0.4023510017391879 0  0.3120260172693757 -0.4540546875576884 0  0.7804062804433681 0.1896628610854537 0  0.4087715451998049 0.187961780041608 0  -0.1584963477271457 0.5451611892421655 0  -0.8926817849258324 0.463022006336401 0  0.2338091473445219 -0.07576267331277289 0  0.08171112182813692 -0.2349087687359925 0  0.04635385178956847 -0.1044635073718474 0  -0.4377391632114205 -0.6448874471423088 0  -0.1907678351227189 0.6480215912813945 0  0.300605946475244 0.4741444604171038 0  -0.2145033720757486 -0.06751709909419711 0  0.6069191921170397 -0.005492331448357812 0  0.0214718770761248 0.6032397936031719 0  0.5476675683364878 0.8992752415326501 0  0.4387475014316537 0.9093708953002239 0  -0.4932997685306436 -0.4381009159993523 0  0.2515197695339056 -0.1791673369138964 0  -0.7291666666666667 -0.6088789682539681 0  -0.9166666666666667 -0.6875 0  0.620579540363709 -0.2122431523583302 0  -0.484950136419973 0.6719440339397442 0  0.2857044415400258 0.0137589173127316 0  -0.8945708364098356 -0.288306105327986 0  0.4043102720140535 0.7842914560451557 0  0.04123256238752064 -0.9026968245801402 0  0.2003676884403109 -0.9091888601740487 0  0.1068775558538842 -0.7373377130403223 0  -0.4804566783514427 -0.1763307203045643 0  0.108286342087769 -0.3993789328997278 0  -0.191883080105361 -0.3640821726430649 0  -0.07025064492006244 0.2984876656890053 0  -0.7039324641409584 0.788312126296613 0  -0.7311286585775438 0.8932502354831682 0  0.5171409396884947 0.1503852691889257 0  0.4229392823658633 -0.003216522184234835 0  -0.5621736087218259 -0.919558629836806 0  -0.626474064879544 -0.7266572613636506 0  0.2446828746617422 0.2867616783302419 0  0.1759429608742923 0.4776611759306416 0  -0.3468240303741654 -0.5260416435617549 0  -0.7465808808425306 0.4069574477998361 0  -0.7819962170660292 0.2802441065650652 0  -0.3742623214119594 -0.8547800509641984 0  0.1014498009713561 0.8506721983266377 0  0.4285217620918213 -0.5230190595570253 0  0.4091738370487775 -0.6256346204225141 0  0.78125 0.46875 0  0.90625 0.53125 0  -0.4791801348852565 0.2553992655702126 0  0.7843318610782772 -0.7086046956885941 0  0.8909728264971901 -0.7355183796514634 0  0.7041908166528879 -0.7830649143180282 0  0.7311821352
[...]
<PointData  Vectors="f_22"> 
<DataArray  type="Float64"  Name="f_22"  NumberOfComponents="3" format="ascii">-2.7318658595585897e-03 -2.7847148101719241e-03 0.0000000000000000e+00  -2.7318658595585897e-03 -2.7847148101719241e-03 0.0000000000000000e+00  -2.7318658595585897e-03 -2.7847148101719241e-03 0.0000000000000000e+00  -2.7318658595585897e-03 -2.7847148101719241e-03 0.0000000000000000e+00  -2.7303581690528256e-03 -3.0195748745831812e-03 0.0000000000000000e+00  -2.9885154083993154e-03 -2.7828045030005208e-03 0.0000000000000000e+00  -2.7303581690528256e-03 -3.0195748745831812e-03 0.0000000000000000e+00  -2.9885154083993154e-03 -2.7828045030005208e-03 0.0000000000000000e+00  -2.9899353301863119e-03 -3.0214857378623506e-03 0.0000000000000000e+00  -1.7457779794341063e-04 -2.7836566390959873e-03 0.0000000000000000e+00  -2.7310776473548183e-03 -2.1685211238006651e-04 0.0000000000000000e+00  -2.7310776473548183e-03 -2.1685211238006651e-04 0.0000000000000000e+00  -5.5458309755517824e-03 -2.7836041726697846e-03 0.0000000000000000e+00  -1.7457779794341063e-04 -2.7836566390959873e-03 0.0000000000000000e+00  -2.7309780307647985e-03 -5.5875782742436505e-03 0.0000000000000000e+00  -5.5458309755517824e-03 -2.7836041726697846e-03 0.0000000000000000e+00  -2.7309780307647985e-03 -5.5875782742436505e-03 0.0000000000000000e+00  -2.9874349522468333e-04 -5.5261111975717855e-03 0.0000000000000000e+00  -5.4868804600035946e-03 -3.3839701787137223e-04 0.0000000000000000e+00  -1.7527970317005078e-04 -1.0875306362947549e-03 0.0000000000000000e+00  -4.8510784891361023e-03 -5.5880476387435906e-03 0.0000000000000000e+00  -2.4051937502343372e-03 -2.2475019073633503e-04 0.0000000000000000e+00  -5.5423666227928945e-03 -3.6304410573513870e-03 0.0000000000000000e+00  -3.3061730768207980e-04 -3.7678537406591781e-04 0.0000000000000000e+00  -5.2928388067366031e-03 -5.3385447321845705e-03 0.0000000000000000e+00  -1.0516752733201473e-03 -4.7891520229576311e-03 0.0000000000000000e+00  -4.6109869130010230e-03 -7.0651137252855959e-04 0.0000000000000000e+00  -4.7401028885434840e-03 -1.0863141760029480e-03 0.0000000000000000e+00  -3.5825930451697456e-04 -3.8865689604181668e-03 0.0000000000000000e+00  -5.1094076809593048e-04 -5.1196202189468703e-03 0.0000000000000000e+00  -5.0720565605265194e-03 -5.5898311733411918e-04 0.0000000000000000e+00  -2.4052093859555450e-03 -5.3391142184703736e-03 0.0000000000000000e+00  -7.4007424273980695e-04 -7.9132868075589360e-04 0.0000000000000000e+00  -4.7912474985152163e-03 -5.2082857588793587e-03 0.0000000000000000e+00  -6.4882417434595910e-04 -3.1936232508257478e-03 0.0000000000000000e+00  -4.1767543746535959e-03 -9.7180821135719011e-04 0.0000000000000000e+00  -7.4599662576252455e-04 -5.4578752379934644e-03 0.0000000000000000e+00  -1.5590598432527829e-03 -1.2634026741565410e-03 0.0000000000000000e+00  -4.4670631731443264e-03 -4.6950198025405530e-03 0.0000000000000000e+00  -5.3911770380789285e-03 -4.7175752584879800e-03 0.0000000000000000e+00  -9.2889386985558695e-04 -1.8233729838395332e-03 0.0000000000000000e+00  -3.3476412628832527e-03 -4.9569378303285314e-03 0.0000000000000000e+00  -2.7315636782162299e-03 -9.2042471568621893e-04 0.0000000000000000e+00  -8.7055305863967432e-04 -2.7843729587120579e-03 0.0000000000000000e+00  -4.6683922383131326e-03 -2.7842977429754123e-03 0.0000000000000000e+00  -2.7315751705276202e-03 -4.7178419992974872e-03 0.0000000000000000e+00  -2.5995409479104784e-03 -8.8519818507343468e-04 0.0000000000000000e+00  -5.8916864403639121e-04 -2.5222969169502263e-04 0.0000000000000000e+00  -5.5494620785407449e-03 -5.5071264830453678e-03 0.0000000000000000e+00  -2.7305309276000360e-03 -4.8841390988776292e-03 0.0000000000000000e+00  -2.7305408025684033e-03 -1.0864293284003029e-03 0.0000000000000000e+00  -2.7315636782162299e-03 -9.2042471568621893e-04 0.0000000000000000e+00  -2.7315751705276202e-03 -4.7178419992974872e-03 0.0000000000000000e+00  -1.0518646351283399e-03 -2.7830806931350227e-03 0.0000000000000000e+00  -4.8499397103525799e-03 -2.7830310493962705e-03 0.0000000000000000e+00  -1.0518646351283399e-03 -2.7830806931350227e-03 0.0000000000000000e+00  -2.7305408025684033e-03 -1.0864293284003029e-03 0.0000000000000000e+00  -8.7055305863967432e-04 -2.7843729587120579e-03 0.0000000000000000e+00  -4.6683922383131326e-03 -2.7842977429754123e-03 0.0000000000000000e+00  -2.7305309276000360e-03 -4.8841390988776292e-03 0.0000000000000000e+00  -4.8499397103525799e-03 -2.7830310493962705e-03 0.0000000000000000e+00  -9.2662571333556546e-04 -3.7306446849737489e-04 0.0000000000000000e+00  -4.6180843285883342e-03 -3.5622371571718790e-03 0.0000000000000000e+00  -5.4150166506343311e-03 -1.7329658977385978e-03 0.0000000000000000e+00  -5.5226967963435090e-03 -4.6488884844232925e-04 0.0000000000000000e+00  -4.2268383934373609e-03 -2.1976560407573943e-04 0.0000000000000000e+00  -4.5033181059609259e-03 -2.3579888571162672e-04 0.0000000000000000e+00  -2.2052200082035937e-04 -5.2811336576269992e-03 0.0000000000000000e+00  -1.2736171276623437e-03 -5.5771874251668617e-03 0.0000000000000000e+00  -4.6921894669431476e-03 -3.0022000550369056e-03 0.0000000000000000e+00  -1.7371978803487236e-03 -4.2278705012520571e-03 0.0000000000000000e+00  -2.4390164596930204e-04 -4.5872664446898175e-03 0.0000000000000000e+00  -5.2826030893999010e-03 -2.3077168841113432e-03 0.0000000000000000e+00  -5.3580349074651406e-03 -1.4803954103255268e-03 0.0000000000000000e+00  -3.3036582036302946e-04 -1.4577300231217686e-03 0.0000000000000000e+00  -1.3345178748442889e-03 -2.9998668384244770e-04 0.0000000000000000e+00  -1.7753993866153456e-04 -2.7484544367628437e-04 0.0000000000000000e+00  -5.4696658156184377e-03 -4.2960408477659175e-03 0.0000000000000000e+00  -4.4649039629135285e-03 -4.5149406813410724e-03 0.0000000000000000e+00  -4.3720314873239097e-03 -5.5834967468150172e-03 0.0000000000000000e+00  -1.4400372279407018e-03 -4.0384295815070860e-03 0.0000000000000000e+00  -1.3024008891676360e-03 -1.3536633162262947e-03 0.0000000000000000e+00  -2.3029018580945760e-04 -2.3671096209752205e-03 0.0000000000000000e+00  -3.4053602778566874e-03 -5.5834941065843607e-03 0.0000000000000000e+00  -8.9577666398834579e-04 -5.1055582955580074e-03 0.0000000000000000e+00  -2.4405975903971623e-04 -5.5803908234447717e-03 0.0000000000000000e+00  -1.5888321590935568e-03 -5.3377708518283704e-03 0.0000000000000000e+00  -1.2839342085562110e-03 -4.2716101713992857e-03 0.0000000000000000e+00  -5.4429471550612347e-03 -2.1400363926144615e-04 0.0000000000000000e+00  -5.2918155862359409e-03 -1.6406672681050496e-03 0.0000000000000000e+00  -4.2222950568787040e-03 -1.3297384783761440e-03 0.0000000000000000e+00  -3.2953970616231168e-04 -3.9496076353506835e-03 0.0000000000000000e+00  -5.5016737309819342e-03 -9.7257864751471262e-04 0.0000000000000000e+00  -2.3879133847332242e-04 -4.2093553182758836e-03 0.0000000000000000e+00  -5.5318069310387585e-03 -5.4658831062255704e-03 0.0000000000000000e+00  -1.9508806176424974e-03 -3.8664713887301438e-03 0.0000000000000000e+00  -3.8149272755784620e-03 -1.9830146994087730e-03 0.0000000000000000e+00  -4.0063936818936644e-03 -1.7205277543084331e-03 0.0000000000000000e+00  -4.0066575849149709e-03 -3.8618098644551814e-03 0.0000000000000000e+00  -3.7989194179878609e-03 -3.7605543706742054e-04 0.0000000000000000e+00  -5.4263890384074285e-03 -4.7914630429148116e-03 0.0000000000000000e+00  -5.4630925019790236e-03 -4.8585954523754889e-03 0.0000000000000000e+00  -3.1601827357961550e-03 -4.3935577160672005e-03 0.0000000000000000e+00  -2.0265721069072655e-04 -5.2512054961622321e-03 0.0000000000000000e+00  -1.8716918045804206e-04 -8.0578418912244192e-04 0.0000000000000000e+00  -4.2809085912840720e-04 -2.7833124144152877e-03 0.0000000000000000e+00  -1.2977292328909330e-03 -2.7398102505823865e-04 0.0000000000000000e+00  -4.6455735372800244e-03 -5.1377840185697831e-03 0.0000000000000000e+00  -2.7307357137455654e-03 -5.4281450316834047e-03 0.0000000000000000e+00  -5.1011050109200807e-03 -2.5716957579936041e-04 0.0000000000000000e+00  -1.9509687775046680e-03 -2.7828066248111526e-03 0.0000000000000000e+00  -1.4750817114123165e-03 -1.5431664637511181e-03 0.0000000000000000e+00  -2.7864106185195455e-03 -7.2604774630692095e-04 0.0000000000000000e+00  -5.9852197717558499e-04 -8.5464570915213210e-04 0.0000000000000000e+00  -2.8554448771262489e-04 -2.1246383486692466e-03 0.0000000000000000e+00  -1.6407091114959810e-03 -2.5961804486280844e-03 0.0000000000000000e+00  -2.0605221978212194e-03 -5.2569584126778519e-03 0.0000000000000000e+00  -5.2365897718878538e-03 -5.5846521275632046e-03 0.0000000000000000e+00  -3.7642840139232160e-03 -5.3537090075899711e-03 0.0000000000000000e+00  -3.3155747711645688e-03 -3.2601229690106952e-04 0.0000000000000000e+00  -3.8149789519785838e-03 -5.9283791611018134e-04 0.0000000000000000e+00  -2.7312279355747866e-03 -5.3381562396216812e-03 0.0000000000000000e+00  -3.2167648234902851e-03 -1.7114262308966113e-03 0.0000000000000000e+00  -1.8714531189705636e-04 -3.4101252332987635e-03 0.0000000000000000e+00  -3.7692896574156010e-03 -2.7844993097828450e-03 0.0000000000000000e+00  -5.1997060012509630e-03 -4.3600305612232366e-04 0.0000000000000000e+00  -4.9226064810125704e-03 -4.5711555750982999e-04 0.0000000000000000e+00  -3.6205117237641789e-04 -3.1798897678673066e-04 0.0000000000000000e+00  -2.7304154100716064e-03 -4.0383249765777078e-03 0.0000000000000000e+00  -3.9977391872388600e-03 -4.5829887148371440e-03 0.0000000000000000e+00  -1.4952455808545405e-03 -5.0574695828516977e-03 0.0000000000000000e+00  -3.4184382107692920e-04 -6.5809129183966590e-04 0.0000000000000000e+00  -5.0063946119308644e-03 -5.3356732504472610e-03 0.0000000000000000e+00  -1.5315644757589785e-03 -5.5877963258738382e-03 0.0000000000000000e+00  -6.2451577103143680e-04 -4.8169522951156517e-03 0.0000000000000000e+00  -5.3936555083139628e-03 -2.9806935523496777e-03 0.0000000000000000e+00  -3.7325344450861523e-04 -1.5775019975698430e-03 0.0000000000000000e+00  -5.0926012504500457e-03 -4.0190150673092466e-03 0.0000000000000000e+00  -1.3616594693791997e-03 -4.6031230877055496e-04 0.0000000000000000e+00  -1.4998745947208351e-03 -9.3705652382097165e-04 0.0000000000000000e+00  -8.5346618923725476e-04 -3.0604435241404701e-03 0.0000000000000000e+00  -2.7303829313215979e-03 -1.9830668903015026e-03 0.0000000000000000e+00  -1.6928044680946934e-03 -2.5143547774605954e-03 0.0000000000000000e+00  -5.5196084076956729e-03 -3.8205108492519639e-03 0.0000000000000000e+00  -4.9669487772730728e-03 -3.9813807228951115e-03 0.0000000000000000e+00  -2.7317312021415529e-03 -3.8211624967663033e-03 0.0000000000000000e+00  -4.7682787732871192e-03 -1.7891244552331565e-03 0.0000000000000000e+00  -3.8374641343660982e-03 -5.3055325072358505e-03 0.0000000000000000e+00  -5.5452894354819007e-03 -1.1321722490361557e-03 0.0000000000000000e+00  -1.9028010603886890e-04 -4.7791358624672473e-03 0.0000000000000000e+00  -7.1148956694294283e-04 -4.2855386804359812e-03 0.0000000000000000e+00  -6.8100593340137143e-04 -8.0610138372919234e-04 0.0000000000000000e+00  -2.7307864552808042e-03 -4.6622357701817780e-04 0.0000000000000000e+00  -3.9534776065016574e-03 -5.2486179144367821e-03 0.0000000000000000e+00  -8.5901757246915943e-04 -1.9488223378698053e-03 0.0000000000000000e+00  -3.9107026097554703e-03 -3.6417106174683332e-03 0.0000000000000000e+00  -6.8010856681195123e-04 -5.3726291576169094e-03 0.0000000000000000e+00  -8.1504681616867739e-04 -5.5264031330668094e-03 0.0000000000000000e+00  -2.7307357137455654e-03 -5.4281450316834047e-03 0.0000000000000000e+00  -2.2829909972429622e-03 -5.5898694270831925e-03 0.0000000000000000e+00  -5.0415532755941021e-03 -3.7899685360172353e-03 0.0000000000000000e+00  -5.5466552018136675e-03 -2.5222048086429882e-03 0.0000000000000000e+00  -5.2571251478758917e-03 -4.0473772610252505e-03 0.0000000000000000e+00  -7.2251204143095114e-04 -3.8665312519436403e-03 0.0000000000000000e+00  -5.3661342518134987e-03 -8.4614174379089423e-04 0.0000000000000000e+00  -2.7317957237761293e-03 -1.7661140618498482e-03 0.0000000000000000e+00  -3.7692896574156010e-03 -2.7844993097828450e-03 0.0000000000000000e+00  -1.7139736032240969e-03 -2.7846307751715200e-03 0.0000000000000000e+00  -2.7317312021415529e-03 -3.8211624967663033e-03 0.0000000000000000e+00  -2.9363675425770159e-03 -1.7182920492179632e-03 0.0000000000000000e+00  -3.6894985319742774e-03 -8.9026111105176722e-04 0.0000000000000000e+00  -1.5747802042102201e-03 -7.3245432844699432e-04 0.0000000000000000e+00  -6.6522260218973594e-04 -2.1679789206492385e-04 0.0000000000000000e+00  -1.6887583978291096e-03 -2.3733908035997357e-04 0.0000000000000000e+00  -5.3992788817685657e-03 -5.5887748341680058e-03 0.0000000000000000e+00  -2.7317957237761293e-03 -1.7661140618498482e-03 0.0000000000000000e+00  -1.7139736032240969e-03 -2.7846307751715200e-03 0.0000000000000000e+00  -5.5369858595335541e-03 -5.0434207293795930e-03 0.0000000000000000e+00  -2.6920096639333925e-04 -4.6993645927311223e-04 0.0000000000000000e+00  -3.7140224779941083e-04 -1.4412249419288089e-03 0.0000000000000000e+00  -2.2403485587367614e-03 -3.5610639517512111e-04 0.0000000000000000e+00  -3.3625526668952621e-03 -3.2019004753547749e-04 0.0000000000000000e+00  -4.0304218621083085e-03 -2.3103405565432062e-03 0.0000000000000000e+00  -3.7978857614514470e-03 -3.0520164182397547e-03 0.0000000000000000e+00  -2.9884388434730565e-03 -3.8204469547542612e-03 0.0000000000000000e+00  -2.7307864552808042e-03 -4.6622357701817780e-04 0.0000000000000000e+00  -2.7312770222465269e-03 -3.7636672135656074e-04 0.0000000000000000e+00  -4.0064300956476921e-03 -2.7828930241469907e-03 0.0000000000000000e+00  -2.7303829313215979e-03 -1.9830668903015026e-03 0.0000000000000000e+00  -4.2809085912840720e-04 -2.7833124144152877e-03 0.0000000000000000e+00  -1.9509687775046680e-03 -2.7828066248111526e-03 0.0000000000000000e+00  -3.2997557341528502e-04 -2.7839645737581433e-03 0.0000000000000000e+00  -2.7312279355747866e-03 -5.3381562396216812e-03 0.0000000000000000e+00  -2.7304154100716064e-03 -4.0383249765777078e-03 0.0000000000000000e+00  -2.7312770222465269e-03 -3.7636672135656074e-04 0.0000000000000000e+00  -3.2997557341528502e-04 -2.7839645737581433e-03 0.0000000000000000e+00  -4.0064300956476921e-03 -2.7828930241469907e-03 0.0000000000000000e+00  -5.3905239395426845e-03 -2.7833158231422642e-03 0.0000000000000000e+00  -5.2922576888345969e-03 -2.7840125092003579e-03 0.0000000000000000e+00  -5.3905239395426845e-03 -2.7833158231422642e-03 0.0000000000000000e+00  -5.2922576888345969e-03 -2.7840125092003579e-03 0.0000000000000000e+00  -5.2518692393962426e-03 -5.3104932807412422e-03 0.0000000000000000e+00  -4.6357902920190061e-03 -2.4794312607311284e-03 0.0000000000000000e+00  -4.8377481948308383e-03 -1.7787953882101718e-03 0.0000000000000000e+00  -3.7942376131583420e-03 -3.8459081161993968e-03 0.0000000000000000e+00  -5.2252227825827146e-03 -5.9974140579607577e-04 0.0000000000000000e+00  -5.4800781688270411e-03 -2.2011830518399320e-04 0.0000000000000000e+00  -5.4782868179497147e-03 -5.7244931097054743e-04 0.0000000000000000e+00  -1.7549379023193883e-03 -6.9715467691727675e-04 0.0000000000000000e+00  -1.7215037987926410e-04 -1.7870360802447454e-03 0.0000000000000000e+00  -5.5200825624848841e-03 -4.2799102667569731e-04 0.0000000000000000e+00  -3.9136869281146160e-03 -5.3853996563295965e-03 0.0000000000000000e+00  -1.4461246880728908e-03 -5.4680466682780204e-03 0.0000000000000000e+00  -2.4144454430979788e-03 -4.6495739840097970e-03 0.0000000000000000e+00  -5.3902465569604522e-03 -5.3750664480957137e-03 0.0000000000000000e+00  -1.7245070852929851e-04 -2.5497432617181323e-04 0.0000000000000000e+00  -2.1565601556098167e-04 -5.3326325262131689e-03 0.0000000000000000e+00  -2.0037960058810327e-04 -4.5960320690549309e-03 0.0000000000000000e+00  -4.7257278133763878e-03 -5.3818258759242184e-03 0.0000000000000000e+00  -7.4034487632900750e-04 -5.4960155255818479e-03 0.0000000000000000e+00  -4.6176265228058677e-03 -2.9096215527982537e-04 0.0000000000000000e+00  -4.4374209466015890e-04 -4.8506555479570926e-03 0.0000000000000000e+00  -1.9613282026063444e-04 -5.5719345513275250e-03 0.0000000000000000e+00  -3.6894916460956241e-03 -2.1422487358826930e-04 0.0000000000000000e+00  -5.5154876925501009e-03 -5.5828272260463330e-03 0.0000000000000000e+00  -4.6147708751060092e-03 -5.2074392398808326e-04 0.0000000000000000e+00  -4.7997311278072403e-03 -4.5545217723787145e-03 0.0000000000000000e+00  -4.2272091051599727e-03 -3.3160001576263830e-04 0.0000000000000000e+00  -4.2025728331851380e-03 -4.4538085048597315e-04 0.0000000000000000e+00  -7.9223515646373798e-04 -8.2871787127831293e-04 0.0000000000000000e+00  -5.3560121632467521e-04 -5.5841046297823950e-03 0.0000000000000000e+00  -2.4679216010099875e-03 -2.2445079646111242e-03 0.0000000000000000e+00  -5.1192459313921532e-03 -4.6227342260667798e-03 0.0000000000000000e+00  -3.6472063797021760e-03 -4.6362656256525876e-03 0.0000000000000000e+00  -4.8981369365833491e-03 -9.8577420125831494e-04 0.0000000000000000e+00  -5.4261167011098142e-03 -5.3944352509432752e-03 0.0000000000000000e+00  -3.6459207273884259e-03 -1.1885667310269448e-03 0.0000000000000000e+00  -1.8738747063101325e-03 -1.6224781058979255e-03 0.0000000000000000e+00  -5.4598612292834515e-03 -3.8466078436137814e-03 0.0000000000000000e+00  -2.2042794117728895e-04 -5.1982746525869655e-03 0.0000000000000000e+00  -4.4740968734643637e-03 -4.5195154326919743e-03 0.0000000000000000e+00  -4.4634776870833628e-03 -5.5120966093138617e-03 0.0000000000000000e+00  -5.4999592372979361e-03 -1.7233172206309821e-03 0.0000000000000000e+00  -5.5423176120686550e-03 -1.9016246820226055e-03 0.0000000000000000e+00  -2.3529139312106219e-03 -4.7905293490770251e-03 0.0000000000000000e+00  -1.1491800112442070e-03 -3.6991692406287257e-03 0.0000000000000000e+00  -2.1174462550653922e-03 -3.4099158951791837e-03 0.0000000000000000e+00  -3.9214914268585727e-04 -2.9162961113487768e-04 0.0000000000000000e+00  -5.2018823837652363e-03 -1.4845874344816925e-03 0.0000000000000000e+00  -5.5481737851595389e-03 -5.1477607945708452e-03 0.0000000000000000e+00  -2.4216978070367690e-03 -1.3198247485719493e-03 0.0000000000000000e+00  -2.9427027815664337e-03 -5.3980681142412282e-03 0.0000000000000000e+00  -5.3643996716561471e-03 -3.2011730090748536e-03 0.0000000000000000e+00  -3.5735466804743803e-03 -5.5401901394466586e-03 0.0000000000000000e+00  -3.4907244706265167e-03 -5.5606843383370960e-03 0.0000000000000000e+00  -2.5106673604737923e-04 -2.2067022603038287e-04 0.0000000000000000e+00  -1.5363834654888030e-03 -4.8937034478325758e-03 0.0000000000000000e+00  -2.8777746905745051e-04 -8.0603158585958786e-04 0.0000000000000000e+00  -5.5618372397100437e-04 -2.0935381584842551e-03 0.0000000000000000e+00  -1.2999557210598210e-03 -5.3525788849370136e-03 0.0000000000000000e+00  -5.0960348280352482e-03 -2.2483413416155817e-04 0.0000000000000000e+00  -3.1057418656459997e-03 -5.0760993201800437e-03 0.0000000000000000e+00  -8.2631305628476121e-04 -1.9166501513511792e-03 0.0000000000000000e+00  -4.4438951868642955e-03 -5.5024121991456652e-03 0.0000000000000000e+00  -1.9281211515788860e-03 -3.3654467622603779e-03 0.0000000000000000e+00  -1.9797232382396156e-03 -4.5780496593170912e-03 0.0000000000000000e+00  -7.9889228956661065e-04 -3.8980906625064493e-03 0.0000000000000000e+00  -1.5577526731286532e-03 -2.2960846754732165e-04 0.0000000000000000e+00  -3.4771869364267683e-04 -3.9099592330290095e-03 0.0000000000000000e+00  -4.6989246790867716e-04 -1.4779252749456883e-03 0.0000000000000000e+00  -5.1019926142548766e-03 -2.4303960894159157e-03 0.0000000000000000e+00  -4.4155309284862601e-03 -6.7870347615269291e-04 0.0000000000000000e+00  -3.6221720531498564e-03 -8.1606220491608008e-04 0.0000000000000000e+00  -4.1976878655198852e-03 -5.5775522134729385e-03 0.0000000000000000e+00  -2.9623096742379261e-03 -5.5378495418827028e-03 0.0000000000000000e+00  -2.0641601268848483e-03 -2.4530788101877161e-04 0.0000000000000000e+00  -7.4382172592944869e