<?xml version="1.0"?>
<VTKFile type="UnstructuredGrid"  version="0.1"  >
<UnstructuredGrid>
<Piece  NumberOfPoints="1380" NumberOfCells="2630">
<Points>
<DataArray  type="Float64"  NumberOfComponents="3"  format="ascii">-1 -1 0  1 -1 0  1 1 0  -1 1 0  0 -1 0  1 0 0  0 1 0  -1 0 0  0 0 0  -1 -0.5 0  -0.5 -1 0  -0.5 1 0  -1 0.5 0  1 -0.5 0  0.5 -1 0  1 0.5 0  0.5 1 0  0.4166666666666666 -0.4166666666666667 0  -0.4166666666666667 0.4166666666666667 0  -0.25 -0.5 0  0.5 0.25 0  -0.4861111111111112 -0.06944444444444445 0  0.0732758620689655 0.507183908045977 0  -0.625 -0.625 0  0.625 0.625 0  0.7380952380952381 -0.25 0  -0.7099116161616161 0.2105429292929293 0  -0.25 0.7380952380952381 0  0.105392156862745 -0.6348039215686275 0  0.6770833333333334 -0.6770833333333333 0  -0.6770833333333334 0.6770833333333334 0  0.3472222222222222 -0.06944444444444446 0  -0.7264957264957265 -0.3044871794871795 0  0.3141940982507127 0.7297313660835709 0  0.02049587951122483 -0.3227479397556124 0  -0.2690972222222223 0.1475694444444444 0  0.3859500089908372 -0.7274430156831472 0  -0.2228477945123298 -0.1761765495248019 0  0.2182539682539683 0.1884920634920635 0  0.75 0.375 0  -0.145442219440968 -0.7602211097204841 0  0.7088913690476191 0.0427827380952381 0  -0.75 -1 0  -1 -0.75 0  1 0.75 0  0.75 1 0  -0.7439982703698937 -0.04614153195464455 0  -0.4609235096577606 -0.3356498099556895 0  0.4063134471431929 0.4895621842856023 0  0.25 -1 0  -0.25 -1 0  -0.75 1 0  0.75 -1 0  -1 -0.25 0  -1 0.25 0  1 -0.25 0  -0.25 1 0  1 -0.75 0  -1 0.75 0  0.25 1 0  1 0.25 0  -0.4041423272138783 -0.7597141090712928 0  0.06500839607911253 0.7578103030529481 0  -0.1572801182352047 0.3838997021864289 0  -0.6528005242053915 0.4409494757946086 0  -0.4930160984848485 0.1544744318181818 0  -0.4732142857142858 0.7752976190476191 0  0.6398809523809523 -0.4538690476190476 0  0.5166054117396399 -0.2161233620965164 0  -0.002273787244753427 0.2232363985975174 0  0.1500564496765022 -0.1524955293952667 0  0.2016720420046758 -0.4410343282803009 0  -0.08495178036419618 0.6274139771124571 0  -0.8367311471133162 0.3642591720794645 0  -0.8333333333333334 -0.625 0  -0.594323836800685 -0.8231079456002283 0  -0.4466957714776065 -0.5349126855671806 0  0.8125 0.5625 0  0.78125 0.78125 0  0.5091392650016769 0.7947130883338923 0  0.125 -0.8382681931833136 0  -0.8184523809523809 -0.8184523809523809 0  -0.07781530426104531 -0.5819319697006881 0  0.5085055196703295 0.04967610411902112 0  0.2918471072074933 -0.276017202318847 0  0.5120763537765269 -0.5898771553229597 0  0.625 -0.8585349462365591 0  0.8158532234335381 -0.8158532234335381 0  -0.5198088446315396 0.5739411553684605 0  -0.8585349462365591 0.625 0  -0.8150493805516597 0.8156205699829586 0  0.8585349462365591 -0.625 0  -0.2688268348649726 0.5439331383603209 0  0.8242100426758139 -0.4436043596336612 0  0.5833756314287952 0.4479378157143976 0  0.8690476190476191 -0.125 0  -0.125 0.8690476190476191 0  -0.8692745600729823 0.125 0  0.8696725120759167 0.125 0  -0.625 0.8711516477451908 0  0.2339522463269718 0.3879558377955778 0  0.2453709502295031 0.5655822922838026 0  0.1730610651637797 0.02021709580868947 0  0.3245402594056757 -0.5644672020485209 0  -0.7291666666666666 -0.4816595441595442 0  -1 -0.375 0  -0.5811140848639904 -0.2127276307675001 0  0.673332592838314 0.2158348143233718 0  0.375 1 0  -0.5714768890989919 0.2985103444040069 0  -1 -0.125 0  -0.8453692574786325 -0.1875 0  -0.3144549134065865 -0.02408675326008025 0  -0.2898414972096258 -0.3336092734780093 0  -0.1075052092206287 -0.4224330421314983 0  -0.05043970703604117 -0.1652278959397459 0  0.6459672950297897 -0.1113415301525317 0  0.4645210271029513 0.6398480556579343 0  0.3512863754411909 0.0937979496253573 0  -0.6063160985568274 0.03891469652249891 0  -0.3428819444444445 0.8690476190476191 0  0.625 1 0  -0.1602164796159982 0.02697860906625157 0  0.04648110064133829 -0.4808416424239687 0  1 0.875 0  -0.3836102479201657 0.6484936449177356 0  -0.3776011723096096 0.263078478984336 0  -0.6024978259969829 -0.3949628096211138 0  0.125 1 0  0.2010781308272777 0.8456221018461906 0  0.2822509696388829 -0.845902544691141 0  -0.3285533674953515 -0.6289773550938936 0  0.3461306793221754 0.278777492464833 0  0.4737475672408696 -0.8508448959534423 0  0.2384632828836344 -0.7029523187242811 0  -0.004777287059791593 0.3759269695907358 0  -0.8499735021850066 -0.3912320205328522 0  0.1222536293721587 0.2963971539625205 0  -0.3769456520999688 -0.203572526805711 0  -0.2749617205755651 -0.8464290792698902 0  0.004805888512766143 -0.747174355248311 0  -0.125 -1 0  -0.06001061822252458 -0.8724007765244854 0  0.875 0.4375 0  0.854421179608893 0.271342359217786 0  0.875 1 0  -0.1499861095763589 0.2358309656934888 0  0.3381943639137225 0.8663061796405532 0  -0.7853090110442228 0.4998412775277108 0  0.7398165998560814 -0.5535192694951373 0  0.1580042122341573 -0.3100246140259917 0  -0.7291666666666667 -0.7142857142857142 0  -0.375 -1 0  0.6483368386154684 0.8514905990110488 0  -0.1295370103291928 -0.2826118305021242 0  0.07458201853700455 0.1123894386563915 0  0.6146465857036327 -0.3161203659316075 0  0.5551898493894731 -0.740296118159085 0  0.375 -1 0  0.482702798370208 -0.084133350091034 0  0.87890625 0.68359375 0  -0.05917195534525846 0.4971092425697621 0  0.1260710309213975 0.6343750312956699 0  0.8690476190476191 -0.3077066815262848 0  -0.2912010232560567 0.3668168386732139 0  -0.875 1 0  -1 0.875 0  1 -0.875 0  0.875 -1 0  -0.8689564281364567 -0.006189266075306407 0  -0.7449425635110547 0.08458938160051771 0  -0.7150266761936593 -0.1739444581417552 0  -0.5260034831318311 -0.711099823962112 0  -0.4724626808827322 -0.871722230709409 0  0.4734436795977052 0.377714794132168 0  -0.875 -1 0  -1 -0.875 0  0.6927189078571988 0.5156567235715964 0  -0.3742497615796874 -0.4296005251260107 0  -0.1969436423297711 -0.6387157229772615 0  -0.6179496409766825 -0.08933356056510935 0  -0.424405057115988 0.04452428810878029 0  -0.08479048335844169 0.1279607007132633 0  0.003830300099055113 0.8712085230656206 0  0.8748778838820267 -1.379218479898026e-05 0  -0.375 1 0  -0.625 1 0  1 0.125 0  -0.125 1 0  1 -0.375 0  1 -0.125 0  1 -0.625 0  0.625 -1 0  0.125 -1 0  -0.625 -1 0  -1 -0.625 0  -1 0.125 0  -1 0.375 0  -1 0.625 0  1 0.375 0  1 0.625 0  0.6325660748712082 0.3335187599557389 0  -0.06420945895056573 0.7549874027425891 0  -0.8769015540914771 0.2478802253893416 0  0.871875 0.871875 0  -0.6868091492840067 0.3270978624973681 0  -0.5363597469565949 0.412994850055505 0  -0.6803734992638302 0.5574295000651103 0  -0.7076253581162534 -0.8803439094224437 0  -0.8778089002295137 -0.5106896447504627 0  -0.3860184984222981 0.530566778071246 0  0.6109900617121508 0.1128453077697081 0  0.3896945134930274 -0.1915382873255086 0  0.7605656944697778 -0.06822134873122943 0  0.3576151269893478 0.5948388411612135 0  -0.5689902680792265 -0.5143596830118065 0  0.6262446286847614 -0.5735657901943212 0  0.2030558252325225 -0.5625263842513452 0  0.6123273142928579 0.7407533260723429 0  0.4016460890123554 -0.3042863223111857 0  -0.59039693199147 0.7578418819188018 0  0.7276932493917544 -0.3705808024528924 0  0.5222536818742854 -0.4713886230400014 0  -0.5101986527137737 0.8848365765607674 0  0.510560172809238 0.5356013299918891 0  -0.3603569195756083 0.75823710606415 0  0.1967279277813232 0.728226870058472 0  -0.6086880986371127 0.1545624071548516 0  -0.38105366729386 0.1511189987807864 0  -0.2944659463671584 -0.7359061804869591 0  0.5060729154966499 -0.3475227845833823 0  -0.09281616240412746 -0.06197858250969457 0  0.7649739583333334 0.6673177083333334 0  0.7628906249999999 0.890234375 0  -0.2666864184909611 0.2585504071132311 0  0.3635064892129658 0.3878003602709461 0  -0.2339409722222222 0.8901937905844155 0  -0.1718792125974916 -0.8957733325456778 0  0.1001768566329531 0.4023510017391879 0  0.3120260172693757 -0.4540546875576884 0  0.7804062804433681 0.1896628610854537 0  0.4087715451998049 0.187961780041608 0  -0.1584963477271457 0.5451611892421655 0  -0.8926817849258324 0.463022006336401 0  0.2338091473445219 -0.07576267331277289 0  0.08171112182813692 -0.2349087687359925 0  0.04635385178956847 -0.1044635073718474 0  -0.4377391632114205 -0.6448874471423088 0  -0.1907678351227189 0.6480215912813945 0  0.300605946475244 0.4741444604171038 0  -0.2145033720757486 -0.06751709909419711 0  0.6069191921170397 -0.005492331448357812 0  0.0214718770761248 0.6032397936031719 0  0.5476675683364878 0.8992752415326501 0  0.4387475014316537 0.9093708953002239 0  -0.4932997685306436 -0.4381009159993523 0  0.2515197695339056 -0.1791673369138964 0  -0.7291666666666667 -0.6088789682539681 0  -0.9166666666666667 -0.6875 0  0.620579540363709 -0.2122431523583302 0  -0.484950136419973 0.6719440339397442 0  0.2857044415400258 0.0137589173127316 0  -0.8945708364098356 -0.288306105327986 0  0.4043102720140535 0.7842914560451557 0  0.04123256238752064 -0.9026968245801402 0  0.2003676884403109 -0.9091888601740487 0  0.1068775558538842 -0.7373377130403223 0  -0.4804566783514427 -0.1763307203045643 0  0.108286342087769 -0.3993789328997278 0  -0.191883080105361 -0.3640821726430649 0  -0.07025064492006244 0.2984876656890053 0  -0.7039324641409584 0.788312126296613 0  -0.7311286585775438 0.8932502354831682 0  0.5171409396884947 0.1503852691889257 0  0.4229392823658633 -0.003216522184234835 0  -0.5621736087218259 -0.919558629836806 0  -0.626474064879544 -0.7266572613636506 0  0.2446828746617422 0.2867616783302419 0  0.1759429608742923 0.4776611759306416 0  -0.3468240303741654 -0.5260416435617549 0  -0.7465808808425306 0.4069574477998361 0  -0.7819962170660292 0.2802441065650652 0  -0.3742623214119594 -0.8547800509641984 0  0.1014498009713561 0.8506721983266377 0  0.4285217620918213 -0.5230190595570253 0  0.4091738370487775 -0.6256346204225141 0  0.78125 0.46875 0  0.90625 0.53125 0  -0.4791801348852565 0.2553992655702126 0  0.7843318610782772 -0.7086046956885941 0  0.8909728264971901 -0.7355183796514634 0  0.7041908166528879 -0.7830649143180282 0  0.7311821352
[...]
<PointData  Vectors="f_22"> 
<DataArray  type="Float64"  Name="f_22"  NumberOfComponents="3" format="ascii">-1.8226691456244479e-02 -1.7074977662198950e-02 0.0000000000000000e+00  -1.8226691456244479e-02 -1.7074977662198950e-02 0.0000000000000000e+00  -1.8226691456244479e-02 -1.7074977662198950e-02 0.0000000000000000e+00  -1.8226691456244479e-02 -1.7074977662198950e-02 0.0000000000000000e+00  -1.8187176359103253e-02 -2.0491331687073622e-02 0.0000000000000000e+00  -2.1472999738016089e-02 -1.7035353551494284e-02 0.0000000000000000e+00  -1.8187176359103253e-02 -2.0491331687073622e-02 0.0000000000000000e+00  -2.1472999738016089e-02 -1.7035353551494284e-02 0.0000000000000000e+00  -2.1514733204542426e-02 -2.0533549990445446e-02 0.0000000000000000e+00  -1.3394143709179752e-02 -1.7053639092864999e-02 0.0000000000000000e+00  -1.8205401517589186e-02 -1.2355264653614259e-02 0.0000000000000000e+00  -1.8205401517589186e-02 -1.2355264653614259e-02 0.0000000000000000e+00  -2.6310289347129985e-02 -1.7053031037722943e-02 0.0000000000000000e+00  -1.3394143709179752e-02 -1.7053639092864999e-02 0.0000000000000000e+00  -1.8205265036635210e-02 -2.5216206014663300e-02 0.0000000000000000e+00  -2.6310289347129985e-02 -1.7053031037722943e-02 0.0000000000000000e+00  -1.8205265036635210e-02 -2.5216206014663300e-02 0.0000000000000000e+00  -1.4024246223331293e-02 -2.5426085948466095e-02 0.0000000000000000e+00  -2.6497488717957610e-02 -1.3006475470240470e-02 0.0000000000000000e+00  -1.3408704919465905e-02 -1.5474194140365811e-02 0.0000000000000000e+00  -2.5593180082742126e-02 -2.5227624826684534e-02 0.0000000000000000e+00  -2.0064427043088154e-02 -1.2442459496670106e-02 0.0000000000000000e+00  -2.6273503181068702e-02 -2.1940488434622235e-02 0.0000000000000000e+00  -1.3279395613127083e-02 -1.2206008578917229e-02 0.0000000000000000e+00  -2.5206174031418532e-02 -2.4081433114711306e-02 0.0000000000000000e+00  -1.6428178878506110e-02 -2.2297420606081760e-02 0.0000000000000000e+00  -2.5098136420760669e-02 -1.2623677723169026e-02 0.0000000000000000e+00  -2.3442611591158430e-02 -1.5441731638006636e-02 0.0000000000000000e+00  -1.3275323416000013e-02 -2.2498535785091183e-02 0.0000000000000000e+00  -1.3492303631155894e-02 -2.3317588272942315e-02 0.0000000000000000e+00  -2.4453155705892893e-02 -1.2403761622700207e-02 0.0000000000000000e+00  -2.0065104599996376e-02 -2.5291441475237236e-02 0.0000000000000000e+00  -1.5524814050818013e-02 -1.2794618702365115e-02 0.0000000000000000e+00  -2.3617612060601399e-02 -2.5108529018112238e-02 0.0000000000000000e+00  -1.5247596840707686e-02 -2.0934368600266116e-02 0.0000000000000000e+00  -2.4215930738132510e-02 -1.5127186500983771e-02 0.0000000000000000e+00  -1.3876385983570562e-02 -2.5395962466239583e-02 0.0000000000000000e+00  -1.7874582897339550e-02 -1.5983702341455755e-02 0.0000000000000000e+00  -2.4838791799404718e-02 -2.4213558846071390e-02 0.0000000000000000e+00  -2.6453765159024943e-02 -2.2115746212979598e-02 0.0000000000000000e+00  -1.4230282980738812e-02 -1.7491404474345867e-02 0.0000000000000000e+00  -2.2335551270079392e-02 -2.2812895396589882e-02 0.0000000000000000e+00  -1.8219889170201169e-02 -1.3034051270285524e-02 0.0000000000000000e+00  -1.4141366979971535e-02 -1.7068221457673550e-02 0.0000000000000000e+00  -2.3267325866189827e-02 -1.7067789224271053e-02 0.0000000000000000e+00  -1.8220085971326887e-02 -2.2119380554457790e-02 0.0000000000000000e+00  -2.0532971225545718e-02 -1.2943708687835313e-02 0.0000000000000000e+00  -1.5064968292894531e-02 -1.2634189813265599e-02 0.0000000000000000e+00  -2.6377124708705957e-02 -2.5457917410038555e-02 0.0000000000000000e+00  -1.8192212945984443e-02 -2.4541324616996998e-02 0.0000000000000000e+00  -1.8192277113656931e-02 -1.5444425571189154e-02 0.0000000000000000e+00  -1.8219889170201169e-02 -1.3034051270285524e-02 0.0000000000000000e+00  -1.8220085971326887e-02 -2.2119380554457790e-02 0.0000000000000000e+00  -1.6430674164268924e-02 -1.7040704798068514e-02 0.0000000000000000e+00  -2.5565919329085446e-02 -1.7040149078382937e-02 0.0000000000000000e+00  -1.6430674164268924e-02 -1.7040704798068514e-02 0.0000000000000000e+00  -1.8192277113656931e-02 -1.5444425571189154e-02 0.0000000000000000e+00  -1.4141366979971535e-02 -1.7068221457673550e-02 0.0000000000000000e+00  -2.3267325866189827e-02 -1.7067789224271053e-02 0.0000000000000000e+00  -1.8192212945984443e-02 -2.4541324616996998e-02 0.0000000000000000e+00  -2.5565919329085446e-02 -1.7040149078382937e-02 0.0000000000000000e+00  -1.4241976015518564e-02 -1.3165234266825167e-02 0.0000000000000000e+00  -2.3101517961864496e-02 -2.1770637432624779e-02 0.0000000000000000e+00  -2.6468034195211921e-02 -1.7257422977673628e-02 0.0000000000000000e+00  -2.6482866469423182e-02 -1.2263771189433394e-02 0.0000000000000000e+00  -2.4311459188245836e-02 -1.2386465727973514e-02 0.0000000000000000e+00  -2.2768216369695889e-02 -1.2510157604845746e-02 0.0000000000000000e+00  -1.3681810161704361e-02 -2.3843861808148618e-02 0.0000000000000000e+00  -1.7064409399714223e-02 -2.5100795399647984e-02 0.0000000000000000e+00  -2.5288756878604223e-02 -2.0483682022864720e-02 0.0000000000000000e+00  -1.8345600070117454e-02 -2.3257490935794344e-02 0.0000000000000000e+00  -1.3799482419989779e-02 -2.3978793217051465e-02 0.0000000000000000e+00  -2.5143742490372597e-02 -1.8745941632838169e-02 0.0000000000000000e+00  -2.6396257524732167e-02 -1.4103933832876793e-02 0.0000000000000000e+00  -1.3275218970757613e-02 -1.4092780890372027e-02 0.0000000000000000e+00  -1.5067356727718771e-02 -1.2147665318754254e-02 0.0000000000000000e+00  -1.3273454379124588e-02 -1.2752879790710532e-02 0.0000000000000000e+00  -2.5877808149010587e-02 -2.0930806889597801e-02 0.0000000000000000e+00  -2.2694256966876609e-02 -2.1543353335529182e-02 0.0000000000000000e+00  -2.2430168767089136e-02 -2.5174691337910865e-02 0.0000000000000000e+00  -1.5252691683031075e-02 -2.2823887307226665e-02 0.0000000000000000e+00  -1.5005560206662733e-02 -1.3882457848793280e-02 0.0000000000000000e+00  -1.3188813849875750e-02 -1.8906310623408980e-02 0.0000000000000000e+00  -2.2482251316708269e-02 -2.5167729204961332e-02 0.0000000000000000e+00  -1.5988840371131838e-02 -2.4936854980237080e-02 0.0000000000000000e+00  -1.3173752690709858e-02 -2.5124085908586318e-02 0.0000000000000000e+00  -1.5589391062169240e-02 -2.4060379813345842e-02 0.0000000000000000e+00  -1.4954670912403831e-02 -2.0854688936295093e-02 0.0000000000000000e+00  -2.5734756513396309e-02 -1.2242480189469983e-02 0.0000000000000000e+00  -2.5185713850748293e-02 -1.4457007480251456e-02 0.0000000000000000e+00  -2.2012761356979542e-02 -1.3820614923006449e-02 0.0000000000000000e+00  -1.3257800264929112e-02 -1.9979462091353165e-02 0.0000000000000000e+00  -2.6002849498462672e-02 -1.5111772844565391e-02 0.0000000000000000e+00  -1.3772079711373704e-02 -2.0665215446517095e-02 0.0000000000000000e+00  -2.6507185060118659e-02 -2.4564139654503346e-02 0.0000000000000000e+00  -1.8876830798320955e-02 -1.9748522301229674e-02 0.0000000000000000e+00  -2.0904261508367751e-02 -1.7900171370523164e-02 0.0000000000000000e+00  -2.3821315881739812e-02 -1.4611424372762491e-02 0.0000000000000000e+00  -2.3826341128895902e-02 -1.9743925680740546e-02 0.0000000000000000e+00  -2.0876035067635506e-02 -1.2184668298158882e-02 0.0000000000000000e+00  -2.6496230430324508e-02 -2.4396370814548714e-02 0.0000000000000000e+00  -2.5845831433222870e-02 -2.4515826479181050e-02 0.0000000000000000e+00  -2.1919505368469931e-02 -2.3608203645063112e-02 0.0000000000000000e+00  -1.3177091384966835e-02 -2.5151380960341904e-02 0.0000000000000000e+00  -1.3514009127220939e-02 -1.2829194855717990e-02 0.0000000000000000e+00  -1.4505410878297162e-02 -1.7046444657426409e-02 0.0000000000000000e+00  -1.7147435771058987e-02 -1.2136595031745367e-02 0.0000000000000000e+00  -2.5184582913061877e-02 -2.3390962046747343e-02 0.0000000000000000e+00  -1.8198055887256561e-02 -2.5381466765994613e-02 0.0000000000000000e+00  -2.6014440085749612e-02 -1.2113601620647152e-02 0.0000000000000000e+00  -1.8877119134697362e-02 -1.7036636737892925e-02 0.0000000000000000e+00  -1.7618373234529267e-02 -1.4246596033336563e-02 0.0000000000000000e+00  -2.1015353129940986e-02 -1.4381023592676439e-02 0.0000000000000000e+00  -1.5096194765954340e-02 -1.4786291567864717e-02 0.0000000000000000e+00  -1.3992266057877935e-02 -1.8296984766772436e-02 0.0000000000000000e+00  -1.8093593689642466e-02 -1.9496047895342924e-02 0.0000000000000000e+00  -1.9169083900301209e-02 -2.3768011085794908e-02 0.0000000000000000e+00  -2.5011692205316630e-02 -2.5383185248356473e-02 0.0000000000000000e+00  -2.3313662307174337e-02 -2.5317294786013442e-02 0.0000000000000000e+00  -2.2263339185678646e-02 -1.2135460556799094e-02 0.0000000000000000e+00  -2.0905562212116622e-02 -1.3925587056188746e-02 0.0000000000000000e+00  -1.8212882912705886e-02 -2.4070429254280500e-02 0.0000000000000000e+00  -2.2052786101037919e-02 -1.7214752854298736e-02 0.0000000000000000e+00  -1.3503187967324979e-02 -2.1431155278738987e-02 0.0000000000000000e+00  -2.0818810074523665e-02 -1.7072786735593832e-02 0.0000000000000000e+00  -2.4855004514550489e-02 -1.3380409458737998e-02 0.0000000000000000e+00  -2.5708319618229180e-02 -1.3466378800208113e-02 0.0000000000000000e+00  -1.4290518039267282e-02 -1.2156860837988840e-02 0.0000000000000000e+00  -1.8188477403462355e-02 -2.2823719142971120e-02 0.0000000000000000e+00  -2.1398977948372103e-02 -2.3968638592295397e-02 0.0000000000000000e+00  -1.5370540556150249e-02 -2.4844697858068171e-02 0.0000000000000000e+00  -1.3282900183678495e-02 -1.4162952222288630e-02 0.0000000000000000e+00  -2.5882298725722876e-02 -2.5300013423438378e-02 0.0000000000000000e+00  -1.5455925464830055e-02 -2.5326088774119480e-02 0.0000000000000000e+00  -1.3663569635819731e-02 -2.4412903522293236e-02 0.0000000000000000e+00  -2.6456072402803406e-02 -2.0425737608545734e-02 0.0000000000000000e+00  -1.4319387893541615e-02 -1.4330950418603588e-02 0.0000000000000000e+00  -2.6029808959382377e-02 -2.2814387260060662e-02 0.0000000000000000e+00  -1.7333061072249262e-02 -1.3498413499702874e-02 0.0000000000000000e+00  -1.5397550793423240e-02 -1.5012576989871681e-02 0.0000000000000000e+00  -1.4079321763582661e-02 -2.0596530927836906e-02 0.0000000000000000e+00  -1.8188446679663198e-02 -1.7900614356951262e-02 0.0000000000000000e+00  -1.5802404138983053e-02 -1.9259489423753627e-02 0.0000000000000000e+00  -2.6510113474789730e-02 -1.9650591819733016e-02 0.0000000000000000e+00  -2.5789784185729643e-02 -2.0067269611569728e-02 0.0000000000000000e+00  -1.8224872398227347e-02 -1.9662006057059103e-02 0.0000000000000000e+00  -2.5430410924064117e-02 -1.7415035703905523e-02 0.0000000000000000e+00  -2.0981510877221506e-02 -2.5242758294814614e-02 0.0000000000000000e+00  -2.6297452302709221e-02 -1.3404712426013285e-02 0.0000000000000000e+00  -1.3199629156222515e-02 -2.2272142121511428e-02 0.0000000000000000e+00  -1.5437130755289814e-02 -2.3371151456486890e-02 0.0000000000000000e+00  -1.3802077706448559e-02 -1.2835105943784205e-02 0.0000000000000000e+00  -1.8198156214919617e-02 -1.3497271374878526e-02 0.0000000000000000e+00  -2.1300746384758016e-02 -2.3766397324407506e-02 0.0000000000000000e+00  -1.5896574161690168e-02 -1.7845232965673273e-02 0.0000000000000000e+00  -2.3646166963600342e-02 -2.1978962438978039e-02 0.0000000000000000e+00  -1.5322083056006495e-02 -2.4169435805355050e-02 0.0000000000000000e+00  -1.4009597619573853e-02 -2.4806521136491039e-02 0.0000000000000000e+00  -1.8198055887256561e-02 -2.5381466765994613e-02 0.0000000000000000e+00  -1.9748390899826267e-02 -2.5293938277393787e-02 0.0000000000000000e+00  -2.4382693584871148e-02 -1.9579769073778185e-02 0.0000000000000000e+00  -2.6319290179605916e-02 -1.9294050339181908e-02 0.0000000000000000e+00  -2.5067253188827875e-02 -2.2860646017677327e-02 0.0000000000000000e+00  -1.5452592779338456e-02 -1.9748758294188526e-02 0.0000000000000000e+00  -2.6411072901092486e-02 -1.4737008400863876e-02 0.0000000000000000e+00  -1.8224934875782629e-02 -1.4748914735257360e-02 0.0000000000000000e+00  -2.0818810074523665e-02 -1.7072786735593832e-02 0.0000000000000000e+00  -1.5883256390109204e-02 -1.7073225238226485e-02 0.0000000000000000e+00  -1.8224872398227347e-02 -1.9662006057059103e-02 0.0000000000000000e+00  -2.1349800814437169e-02 -1.4609714288298797e-02 0.0000000000000000e+00  -2.3117456174516566e-02 -1.2946371224927752e-02 0.0000000000000000e+00  -1.7896048945160399e-02 -1.2686021068613438e-02 0.0000000000000000e+00  -1.3771179488138526e-02 -1.2253401269432153e-02 0.0000000000000000e+00  -1.5816180445804844e-02 -1.2534631648490198e-02 0.0000000000000000e+00  -2.6472018515812757e-02 -2.5354165339262991e-02 0.0000000000000000e+00  -1.8224934875782629e-02 -1.4748914735257360e-02 0.0000000000000000e+00  -1.5883256390109204e-02 -1.7073225238226485e-02 0.0000000000000000e+00  -2.6236095216827522e-02 -2.3102727778900510e-02 0.0000000000000000e+00  -1.3931491331301419e-02 -1.3535101589743311e-02 0.0000000000000000e+00  -1.3309043789402862e-02 -1.6466847603149967e-02 0.0000000000000000e+00  -1.9640563983355584e-02 -1.2164941910000256e-02 0.0000000000000000e+00  -2.2383151839778338e-02 -1.2944905479254774e-02 0.0000000000000000e+00  -2.3906772790947352e-02 -1.8776450956248792e-02 0.0000000000000000e+00  -2.0862705846575232e-02 -2.0571416324733714e-02 0.0000000000000000e+00  -2.1474733307021945e-02 -1.9630814103127735e-02 0.0000000000000000e+00  -1.8198156214919617e-02 -1.3497271374878526e-02 0.0000000000000000e+00  -1.8212847707040399e-02 -1.2192775701093686e-02 0.0000000000000000e+00  -2.3821628350201358e-02 -1.7036571709380902e-02 0.0000000000000000e+00  -1.8188446679663198e-02 -1.7900614356951262e-02 0.0000000000000000e+00  -1.4505410878297162e-02 -1.7046444657426409e-02 0.0000000000000000e+00  -1.8877119134697362e-02 -1.7036636737892925e-02 0.0000000000000000e+00  -1.3266838984608809e-02 -1.7061099273437439e-02 0.0000000000000000e+00  -1.8212882912705886e-02 -2.4070429254280500e-02 0.0000000000000000e+00  -1.8188477403462355e-02 -2.2823719142971120e-02 0.0000000000000000e+00  -1.8212847707040399e-02 -1.2192775701093686e-02 0.0000000000000000e+00  -1.3266838984608809e-02 -1.7061099273437439e-02 0.0000000000000000e+00  -2.3821628350201358e-02 -1.7036571709380902e-02 0.0000000000000000e+00  -2.6440192242086664e-02 -1.7045944898779954e-02 0.0000000000000000e+00  -2.5195693099837154e-02 -1.7060852014341672e-02 0.0000000000000000e+00  -2.6440192242086664e-02 -1.7045944898779954e-02 0.0000000000000000e+00  -2.5195693099837154e-02 -1.7060852014341672e-02 0.0000000000000000e+00  -2.6277777947984367e-02 -2.3976380042719715e-02 0.0000000000000000e+00  -2.3146138020018713e-02 -1.9173674635548251e-02 0.0000000000000000e+00  -2.5539966110704367e-02 -1.4737579601115675e-02 0.0000000000000000e+00  -2.0885292402701813e-02 -1.9728173681043376e-02 0.0000000000000000e+00  -2.6211500861672458e-02 -1.2452456764093548e-02 0.0000000000000000e+00  -2.6494068372522595e-02 -1.2181292208022037e-02 0.0000000000000000e+00  -2.5892542328423192e-02 -1.2417140794722779e-02 0.0000000000000000e+00  -1.5972083859851126e-02 -1.2646780602418268e-02 0.0000000000000000e+00  -1.3351040589355195e-02 -1.4784967460463342e-02 0.0000000000000000e+00  -2.6100286449215433e-02 -1.3351908368556818e-02 0.0000000000000000e+00  -2.3634974168752435e-02 -2.4236159274977121e-02 0.0000000000000000e+00  -1.7548055682755401e-02 -2.5414626870771284e-02 0.0000000000000000e+00  -2.0066445249918817e-02 -2.1895877090811845e-02 0.0000000000000000e+00  -2.5555239059047878e-02 -2.5344072916511005e-02 0.0000000000000000e+00  -1.3347238524272250e-02 -1.2155628530680694e-02 0.0000000000000000e+00  -1.3174546812010258e-02 -2.4026684957182076e-02 0.0000000000000000e+00  -1.3182823387938527e-02 -2.3990977821975280e-02 0.0000000000000000e+00  -2.3435862591513163e-02 -2.4237469051165493e-02 0.0000000000000000e+00  -1.5514996025049729e-02 -2.5424097175590975e-02 0.0000000000000000e+00  -2.3096491433345440e-02 -1.2120571831882886e-02 0.0000000000000000e+00  -1.4552509668615142e-02 -2.2479246443178627e-02 0.0000000000000000e+00  -1.3549652415016765e-02 -2.5056210800032772e-02 0.0000000000000000e+00  -2.0586227090332386e-02 -1.2297320946578455e-02 0.0000000000000000e+00  -2.6103188003520763e-02 -2.5172122022905332e-02 0.0000000000000000e+00  -2.3081009511819631e-02 -1.3680732508898725e-02 0.0000000000000000e+00  -2.3636609819699866e-02 -2.3918047561963314e-02 0.0000000000000000e+00  -2.4306874531602608e-02 -1.2132801246931708e-02 0.0000000000000000e+00  -2.4265471408947907e-02 -1.3429035795494239e-02 0.0000000000000000e+00  -1.3984664393537264e-02 -1.4692030323775090e-02 0.0000000000000000e+00  -1.4862950273639486e-02 -2.5160944369469189e-02 0.0000000000000000e+00  -2.0234237991341303e-02 -1.8611991442429289e-02 0.0000000000000000e+00  -2.4629377076841985e-02 -2.1849624277406537e-02 0.0000000000000000e+00  -2.0502281180323944e-02 -2.1887292318500885e-02 0.0000000000000000e+00  -2.5668994795096958e-02 -1.5163419757221403e-02 0.0000000000000000e+00  -2.6497899732763626e-02 -2.5370261989882150e-02 0.0000000000000000e+00  -2.0465350641890066e-02 -1.5736205250631508e-02 0.0000000000000000e+00  -1.6206800591819715e-02 -1.6946664478219516e-02 0.0000000000000000e+00  -2.6514667613568729e-02 -2.2431539441726954e-02 0.0000000000000000e+00  -1.3684244194740614e-02 -2.5075666220311075e-02 0.0000000000000000e+00  -2.4829937439681704e-02 -2.1537318230379025e-02 0.0000000000000000e+00  -2.4827330390420416e-02 -2.5455445020351134e-02 0.0000000000000000e+00  -2.5998176074247502e-02 -1.7223377531413071e-02 0.0000000000000000e+00  -2.6448565453090555e-02 -1.5014320402039739e-02 0.0000000000000000e+00  -1.9938425678972724e-02 -2.4388904832193137e-02 0.0000000000000000e+00  -1.6734002796030809e-02 -2.2101561980956669e-02 0.0000000000000000e+00  -1.9343827902497276e-02 -2.1446468739106380e-02 0.0000000000000000e+00  -1.3347582006570484e-02 -1.2829731872184828e-02 0.0000000000000000e+00  -2.4865728830389802e-02 -1.6569853183779404e-02 0.0000000000000000e+00  -2.6436768033817740e-02 -2.5023950033121540e-02 0.0000000000000000e+00  -2.0116807180550325e-02 -1.6141299357645317e-02 0.0000000000000000e+00  -2.1377321653728559e-02 -2.4277079688646789e-02 0.0000000000000000e+00  -2.5442292139159880e-02 -2.0939418284619184e-02 0.0000000000000000e+00  -2.0305253697307804e-02 -2.4894069458543288e-02 0.0000000000000000e+00  -2.0087999687667960e-02 -2.5429984867252401e-02 0.0000000000000000e+00  -1.3853176750931440e-02 -1.2413692475315954e-02 0.0000000000000000e+00  -1.7801305610371531e-02 -2.4574753729807094e-02 0.0000000000000000e+00  -1.3237977419212199e-02 -1.2833789595840641e-02 0.0000000000000000e+00  -1.3587929721569050e-02 -1.5468056762400676e-02 0.0000000000000000e+00  -1.7133681163128297e-02 -2.4099033289209953e-02 0.0000000000000000e+00  -2.4520878271567310e-02 -1.2428069814590431e-02 0.0000000000000000e+00  -2.1786269277840074e-02 -2.4902483895014531e-02 0.0000000000000000e+00  -1.5775418141948154e-02 -1.5054777646953576e-02 0.0000000000000000e+00  -2.2626038621875660e-02 -2.5446173639507939e-02 0.0000000000000000e+00  -1.6320440022809860e-02 -2.1308817094457418e-02 0.0000000000000000e+00  -1.6436012266171897e-02 -2.3950350727762200e-02 0.0000000000000000e+00  -1.3974075153323350e-02 -2.2519819608014847e-02 0.0000000000000000e+00  -1.7863787636164922e-02 -1.2485524786357269e-02 0.0000000000000000e+00  -1.4224988492665796e-02 -2.2561692767737347e-02 0.0000000000000000e+00  -1.4671193706222161e-02 -1.6580395115737747e-02 0.0000000000000000e+00  -2.6038108785198324e-02 -1.9073851883568756e-02 0.0000000000000000e+00  -2.2535243542973270e-02 -1.2598190372394657e-02 0.0000000000000000e+00  -2.0425579258359288e-02 -1.2839748165889377e-02 0.0000000000000000e+00  -2.4261791182849223e-02 -2.5119362752491846e-02 0.0000000000000000e+00  -2.1435334383950767e-02 -2.5445469093203842e-02 0.0000000000000000e+00  -1.6655626041557500e-02 -1.2151672213834128e-02 0.0000000000000000e+00  -1.3912240780907581e