<?xml version="1.0"?>
<VTKFile type="UnstructuredGrid"  version="0.1"  >
<UnstructuredGrid>
<Piece  NumberOfPoints="1331" NumberOfCells="6000">
<Points>
<DataArray  type="Float64"  NumberOfComponents="3"  format="ascii">-3.141592653589793 -3.141592653589793 -3.141592653589793  -2.513274122871834 -3.141592653589793 -3.141592653589793  -1.884955592153876 -3.141592653589793 -3.141592653589793  -1.256637061435917 -3.141592653589793 -3.141592653589793  -0.6283185307179586 -3.141592653589793 -3.141592653589793  0 -3.141592653589793 -3.141592653589793  0.6283185307179586 -3.141592653589793 -3.141592653589793  1.256637061435917 -3.141592653589793 -3.141592653589793  1.884955592153876 -3.141592653589793 -3.141592653589793  2.513274122871834 -3.141592653589793 -3.141592653589793  3.141592653589793 -3.141592653589793 -3.141592653589793  -3.141592653589793 -2.513274122871834 -3.141592653589793  -2.513274122871834 -2.513274122871834 -3.141592653589793  -1.884955592153876 -2.513274122871834 -3.141592653589793  -1.256637061435917 -2.513274122871834 -3.141592653589793  -0.6283185307179586 -2.513274122871834 -3.141592653589793  0 -2.513274122871834 -3.141592653589793  0.6283185307179586 -2.513274122871834 -3.141592653589793  1.256637061435917 -2.513274122871834 -3.141592653589793  1.884955592153876 -2.513274122871834 -3.141592653589793  2.513274122871834 -2.513274122871834 -3.141592653589793  3.141592653589793 -2.513274122871834 -3.141592653589793  -3.141592653589793 -1.884955592153876 -3.141592653589793  -2.513274122871834 -1.884955592153876 -3.141592653589793  -1.884955592153876 -1.884955592153876 -3.141592653589793  -1.256637061435917 -1.884955592153876 -3.141592653589793  -0.6283185307179586 -1.884955592153876 -3.141592653589793  0 -1.884955592153876 -3.141592653589793  0.6283185307179586 -1.884955592153876 -3.141592653589793  1.256637061435917 -1.884955592153876 -3.141592653589793  1.884955592153876 -1.884955592153876 -3.141592653589793  2.513274122871834 -1.884955592153876 -3.141592653589793  3.141592653589793 -1.884955592153876 -3.141592653589793  -3.141592653589793 -1.256637061435917 -3.141592653589793  -2.513274122871834 -1.256637061435917 -3.141592653589793  -1.884955592153876 -1.256637061435917 -3.141592653589793  -1.256637061435917 -1.256637061435917 -3.141592653589793  -0.6283185307179586 -1.256637061435917 -3.141592653589793  0 -1.256637061435917 -3.141592653589793  0.6283185307179586 -1.256637061435917 -3.141592653589793  1.256637061435917 -1.256637061435917 -3.141592653589793  1.884955592153876 -1.256637061435917 -3.141592653589793  2.513274122871834 -1.256637061435917 -3.141592653589793  3.141592653589793 -1.256637061435917 -3.141592653589793  -3.141592653589793 -0.6283185307179586 -3.141592653589793  -2.513274122871834 -0.6283185307179586 -3.141592653589793  -1.884955592153876 -0.6283185307179586 -3.141592653589793  -1.256637061435917 -0.6283185307179586 -3.141592653589793  -0.6283185307179586 -0.6283185307179586 -3.141592653589793  0 -0.6283185307179586 -3.141592653589793  0.6283185307179586 -0.6283185307179586 -3.141592653589793  1.256637061435917 -0.6283185307179586 -3.141592653589793  1.884955592153876 -0.6283185307179586 -3.141592653589793  2.513274122871834 -0.6283185307179586 -3.141592653589793  3.141592653589793 -0.6283185307179586 -3.141592653589793  -3.141592653589793 0 -3.141592653589793  -2.513274122871834 0 -3.141592653589793  -1.884955592153876 0 -3.141592653589793  -1.256637061435917 0 -3.141592653589793  -0.6283185307179586 0 -3.141592653589793  0 0 -3.141592653589793  0.6283185307179586 0 -3.141592653589793  1.256637061435917 0 -3.141592653589793  1.884955592153876 0 -3.141592653589793  2.513274122871834 0 -3.141592653589793  3.141592653589793 0 -3.141592653589793  -3.141592653589793 0.6283185307179586 -3.141592653589793  -2.513274122871834 0.6283185307179586 -3.141592653589793  -1.884955592153876 0.6283185307179586 -3.141592653589793  -1.256637061435917 0.6283185307179586 -3.141592653589793  -0.6283185307179586 0.6283185307179586 -3.141592653589793  0 0.6283185307179586 -3.141592653589793  0.6283185307179586 0.6283185307179586 -3.141592653589793  1.256637061435917 0.6283185307179586 -3.141592653589793  1.884955592153876 0.6283185307179586 -3.141592653589793  2.513274122871834 0.6283185307179586 -3.141592653589793  3.141592653589793 0.6283185307179586 -3.141592653589793  -3.141592653589793 1.256637061435917 -3.141592653589793  -2.513274122871834 1.256637061435917 -3.141592653589793  -1.884955592153876 1.256637061435917 -3.141592653589793  -1.256637061435917 1.256637061435917 -3.141592653589793  -0.6283185307179586 1.256637061435917 -3.141592653589793  0 1.256637061435917 -3.141592653589793  0.6283185307179586 1.256637061435917 -3.141592653589793  1.256637061435917 1.256637061435917 -3.141592653589793  1.884955592153876 1.256637061435917 -3.141592653589793  2.513274122871834 1.256637061435917 -3.141592653589793  3.141592653589793 1.256637061435917 -3.141592653589793  -3.141592653589793 1.884955592153876 -3.141592653589793  -2.513274122871834 1.884955592153876 -3.141592653589793  -1.884955592153876 1.884955592153876 -3.141592653589793  -1.256637061435917 1.884955592153876 -3.141592653589793  -0.6283185307179586 1.884955592153876 -3.141592653589793  0 1.884955592153876 -3.141592653589793  0.6283185307179586 1.884955592153876 -3.141592653589793  1.256637061435917 1.884955592153876 -3.141592653589793  1.884955592153876 1.884955592153876 -3.141592653589793  2.513274122871834 1.884955592153876 -3.141592653589793  3.141592653589793 1.884955592153876 -3.141592653589793  -3.141592653589793 2.513274122871834 -3.141592653589793  -2.513274122871834 2.513274122871834 -3.141592653589793  -1.884955592153876 2.513274122871834 -3.141592653589793  -1.256637061435917 2.513274122871834 -3.141592653589793  -0.6283185307179586 2.513274122871834 -3.141592653589793  0 2.513274122871834 -3.141592653589793  0.6283185307179586 2.513274122871834 -3.141592653589793  1.256637061435917 2.513274122871834 -3.141592653589793  1.884955592153876 2.513274122871834 -3.141592653589793  2.513274122871834 2.513274122871834 -3.141592653589793  3.141592653589793 2.513274122871834 -3.141592653589793  -3.141592653589793 3.141592653589793 -3.141592653589793  -2.513274122871834 3.141592653589793 -3.141592653589793  -1.884955592153876 3.141592653589793 -3.141592653589793  -1.256637061435917 3.141592653589793 -3.141592653589793  -0.6283185307179586 3.141592653589793 -3.141592653589793  0 3.141592653589793 -3.141592653589793  0.6283185307179586 3.141592653589793 -3.141592653589793  1.256637061435917 3.141592653589793 -3.141592653589793  1.884955592153876 3.141592653589793 -3.141592653589793  2.513274122871834 3.141592653589793 -3.141592653589793  3.141592653589793 3.141592653589793 -3.141592653589793  -3.141592653589793 -3.141592653589793 -2.513274122871834  -2.513274122871834 -3.141592653589793 -2.513274122871834  -1.884955592153876 -3.141592653589793 -2.513274122871834  -1.256637061435917 -3.141592653589793 -2.513274122871834  -0.6283185307179586 -3.141592653589793 -2.513274122871834  0 -3.141592653589793 -2.513274122871834  0.6283185307179586 -3.141592653589793 -2.513274122871834  1.256637061435917 -3.141592653589793 -2.513274122871834  1.884955592153876 -3.141592653589793 -2.513274122871834  2.513274122871834 -3.141592653589793 -2.513274122871834  3.141592653589793 -3.141592653589793 -2.513274122871834  -3.141592653589793 -2.513274122871834 -2.513274122871834  -2.513274122871834 -2.513274122871834 -2.513274122871834  -1.884955592153876 -2.513274122871834 -2.513274122871834  -1.256637061435917 -2.513274122871834 -2.513274122871834  -0.6283185307179586 -2.513274122871834 -2.513274122871834  0 -2.513274122871834 -2.513274122871834  0.6283185307179586 -2.513274122871834 -2.513274122871834  1.256637061435917 -2.513274122871834 -2.513274122871834  1.884955592153876 -2.513274122871834 -2.513274122871834  2.513274122871834 -2.513274122871834 -2.513274122871834  3.141592653589793 -2.513274122871834 -2.513274122871834  -3.141592653589793 -1.884955592153876 -2.513274122871834  -2.513274122871834 -1.884955592153876 -2.513274122871834  -1.884955592153876 -1.884955592153876 -2.513274122871834  -1.256637061435917 -1.884955592153876 -2.513274122871834  -0.6283185307179586 -1.884955592153876 -2.513274122871834  0 -1.884955592153876 -2.513274122871834  0.6283185307179586 -1.884955592153876 -2.513274122871834  1.256637061435917 -1.884955592153876 -2.513274122871834  1.884955592153876 -1.884955592153876 -2.513274122871834  2.513274122871834 -1.884955592153876 -2.513274122871834  3.141592653589793 -1.884955592153876 -2.513274122871834  -3.141592653589793 -1.256637061435917 -2.513274122871834  -2.513274122871834 -1.256637061435917 -2.513274122871834  -1.884955592153876 -1.256637061435917 -2.513274122871834  -1.256637061435917 -1.256637061435917 -2.513274122871834  -0.6283185307179586 -1.256637061435917 -2.513274122871834  0 -1.256637061435917 -2.513274122871834  0.6283185307179586 -1.256637061435917 -2.513274122871834  1.256637061435917 -1.256637061435917 -2.513274122871834  1.884955592153876 -1.256637061435917 -2.513274122871834  2.513274122871834 -1.256637061435917 -2.513274122871834  3.141592653589793 -1.256637061435917 -2.513274122871834  -3.141592653589793 -0.6283185307179586 -2.513274122871834  -2.513274122871834 -0.6283185307179586 -2.513274122871834  -1.884955592153876 -0.6283185307179586 -2.513274122871834  -1.256637061435917 -0.6283185307179586 -2.513274122871834  -0.6283185307179586 -0.6283185307179586 -2.513274122871834  0 -0.6283185307179586 -2.513274122871834  0.6283185307179586 -0.6283185307179586 -2.513274122871834  1.256637061435917 -0.6283185307179586 -2.513274122871834  1.884955592153876 -0.6283185307179586 -2.513274122871834  2.513274122871834 -0.6283185307179586 -2.513274122871834  3.141592653589793 -0.6283185307179586 -2.513274122871834  -3.141592653589793 0 -2.513274122871834  -2.513274122871834 0 -2.513274122871834  -1.884955592153876 
[...]
<PointData  Vectors="f_11"> 
<DataArray  type="Float64"  Name="f_11"  NumberOfComponents="3" format="ascii">-1.5920712611611516e-14 1.7949152322675068e-14 8.1526908565033358e-16  -6.0518329217257327e-01 9.3152533659770359e-04 -1.7939161795350789e-03  -9.5984813406857528e-01 1.2070660980290744e-03 -6.0306902331513793e-04  -9.3479841239140915e-01 7.2629239141582512e-04 1.4626817234393655e-03  -5.6451786371147250e-01 1.3882789796713953e-04 1.5381225196824859e-03  6.5453488470767528e-15 -3.4599922748498333e-14 2.5354937500288345e-16  5.6451786371154045e-01 -1.3882789799185942e-04 -1.5381225196828695e-03  9.3479841239131922e-01 -7.2629239142756887e-04 -1.4626817234396166e-03  9.5984813406858449e-01 -1.2070660980147681e-03 6.0306902331585708e-04  6.0518329217255884e-01 -9.3152533657041108e-04 1.7939161795348275e-03  -1.5920712611611516e-14 1.7949152322675068e-14 8.1526908565033358e-16  -1.3882789800692260e-04 5.6451786371154700e-01 -1.5381225196828175e-03  -4.9329118271030592e-01 4.5343305961801450e-01 -3.3319224587120264e-03  -7.7823733519153404e-01 1.6110948666703181e-01 -2.3028749921198818e-03  -7.5289955516891205e-01 -2.0048177588115262e-01 -3.0317718832102882e-04  -4.5183610016650699e-01 -4.9331948407318338e-01 -1.8854864772818619e-04  9.3152533660653984e-04 -6.0518329217257416e-01 -1.7939161795345610e-03  4.5343305961801583e-01 -4.9329118271028038e-01 -3.3319224587121535e-03  7.5398730963073735e-01 -2.0132414337754381e-01 -3.0904362924588685e-03  7.7882376306285284e-01 1.5926765764114062e-01 -9.6898847548492135e-04  4.9331948407308818e-01 4.5183610016649617e-01 1.8854864772850630e-04  -1.3882789800692260e-04 5.6451786371154700e-01 -1.5381225196828175e-03  -7.2629239142823511e-04 9.3479841239131245e-01 -1.4626817234395929e-03  -2.0132414337754914e-01 7.5398730963075489e-01 -3.0904362924587753e-03  -3.0483801841387864e-01 2.8018818349469210e-01 -2.0513821818866789e-03  -2.7928998082189982e-01 -3.0498529126239454e-01 2.9707193813706054e-04  -1.5926765764110548e-01 -7.7882376306285139e-01 9.6898847548502359e-04  1.2070660980268209e-03 -9.5984813406861469e-01 -6.0306902331584418e-04  1.6110948666703442e-01 -7.7823733519149862e-01 -2.3028749921200310e-03  2.8018818349468300e-01 -3.0483801841388614e-01 -2.0513821818868676e-03  3.0498529126239565e-01 2.7928998082194739e-01 -2.9707193813708921e-04  2.0048177588112323e-01 7.5289955516890938e-01 3.0317718832051978e-04  -7.2629239142823511e-04 9.3479841239131245e-01 -1.4626817234395929e-03  -1.2070660980150747e-03 9.5984813406856606e-01 6.0306902331565824e-04  1.5926765764112830e-01 7.7882376306282619e-01 -9.6898847548549218e-04  2.7928998082194956e-01 3.0498529126240076e-01 -2.9707193813743551e-04  3.0483801841391606e-01 -2.8018818349470065e-01 2.0513821818865935e-03  2.0132414337756024e-01 -7.5398730963077576e-01 3.0904362924582085e-03  7.2629239141778026e-04 -9.3479841239136230e-01 1.4626817234399199e-03  -2.0048177588115779e-01 -7.5289955516891971e-01 -3.0317718832055692e-04  -3.0498529126240853e-01 -2.7928998082191009e-01 2.9707193813713041e-04  -2.8018818349471869e-01 3.0483801841388342e-01 2.0513821818865397e-03  -1.6110948666705094e-01 7.7823733519158333e-01 2.3028749921199594e-03  -1.2070660980150747e-03 9.5984813406856606e-01 6.0306902331565824e-04  -9.3152533656791741e-04 6.0518329217257949e-01 1.7939161795346692e-03  4.5183610016656900e-01 4.9331948407315912e-01 1.8854864772854238e-04  7.5289955516887574e-01 2.0048177588111454e-01 3.0317718832012156e-04  7.7823733519148064e-01 -1.6110948666703825e-01 2.3028749921197573e-03  4.9329118271026368e-01 -4.5343305961802000e-01 3.3319224587123318e-03  1.3882789797040756e-04 -5.6451786371149137e-01 1.5381225196827303e-03  -4.9331948407318416e-01 -4.5183610016653381e-01 -1.8854864772818988e-04  -7.7882376306285861e-01 -1.5926765764110801e-01 9.6898847548518915e-04  -7.5398730963072025e-01 2.0132414337755705e-01 3.0904362924584067e-03  -4.5343305961799363e-01 4.9329118271029937e-01 3.3319224587121969e-03  -9.3152533656791741e-04 6.0518329217257949e-01 1.7939161795346692e-03  1.8434040086851846e-14 -2.7908726244944164e-14 2.8336278040827533e-16  5.6451786371149770e-01 -1.3882789800613268e-04 -1.5381225196826078e-03  9.3479841239131956e-01 -7.2629239142687617e-04 -1.4626817234398891e-03  9.5984813406854241e-01 -1.2070660980164282e-03 6.0306902331575657e-04  6.0518329217253541e-01 -9.3152533656585331e-04 1.7939161795349362e-03  -1.8520077559303494e-14 1.5399363424862018e-14 -4.5841354470184862e-17  -6.0518329217259081e-01 9.3152533659762770e-04 -1.7939161795347994e-03  -9.5984813406852976e-01 1.2070660980305658e-03 -6.0306902331534219e-04  -9.3479841239137029e-01 7.2629239141519812e-04 1.4626817234393874e-03  -5.6451786371148294e-01 1.3882789797089749e-04 1.5381225196823304e-03  1.8434040086851846e-14 -2.7908726244944164e-14 2.8336278040827533e-16  9.3152533660020734e-04 -6.0518329217258593e-01 -1.7939161795351760e-03  4.5343305961801555e-01 -4.9329118271030431e-01 -3.3319224587127039e-03  7.5398730963075211e-01 -2.0132414337755658e-01 -3.0904362924585038e-03  7.7882376306282664e-01 1.5926765764113560e-01 -9.6898847548551072e-04  4.9331948407314768e-01 4.5183610016654852e-01 1.8854864772828626e-04  -1.3882789801312944e-04 5.6451786371153712e-01 -1.5381225196824876e-03  -4.9329118271030548e-01 4.5343305961803493e-01 -3.3319224587121800e-03  -7.7823733519147575e-01 1.6110948666702926e-01 -2.3028749921203445e-03  -7.5289955516887164e-01 -2.0048177588114535e-01 -3.0317718832062267e-04  -4.5183610016649794e-01 -4.9331948407318360e-01 -1.8854864772851299e-04  9.3152533660020734e-04 -6.0518329217258593e-01 -1.7939161795351760e-03  1.2070660980298910e-03 -9.5984813406854230e-01 -6.0306902331556348e-04  1.6110948666705194e-01 -7.7823733519157878e-01 -2.3028749921200006e-03  2.8018818349470392e-01 -3.0483801841389463e-01 -2.0513821818870033e-03  3.0498529126236384e-01 2.7928998082193229e-01 -2.9707193813732172e-04  2.0048177588112551e-01 7.5289955516896545e-01 3.0317718832100800e-04  -7.2629239142840793e-04 9.3479841239132799e-01 -1.4626817234395619e-03  -2.0132414337754784e-01 7.5398730963074090e-01 -3.0904362924581790e-03  -3.0483801841388852e-01 2.8018818349469121e-01 -2.0513821818863853e-03  -2.7928998082189127e-01 -3.0498529126241242e-01 2.9707193813695033e-04  -1.5926765764111386e-01 -7.7882376306286483e-01 9.6898847548529854e-04  1.2070660980298910e-03 -9.5984813406854230e-01 -6.0306902331556348e-04  7.2629239141373976e-04 -9.3479841239137373e-01 1.4626817234396729e-03  -2.0048177588114346e-01 -7.5289955516887397e-01 -3.0317718832090717e-04  -3.0498529126237167e-01 -2.7928998082190470e-01 2.9707193813738710e-04  -2.8018818349472385e-01 3.0483801841388691e-01 2.0513821818866711e-03  -1.6110948666704655e-01 7.7823733519162341e-01 2.3028749921200522e-03  -1.2070660980138515e-03 9.5984813406849201e-01 6.0306902331573934e-04  1.5926765764114079e-01 7.7882376306285495e-01 -9.6898847548545911e-04  2.7928998082193757e-01 3.0498529126238449e-01 -2.9707193813701863e-04  3.0483801841391628e-01 -2.8018818349471930e-01 2.0513821818865996e-03  2.0132414337756468e-01 -7.5398730963074367e-01 3.0904362924581430e-03  7.2629239141373976e-04 -9.3479841239137373e-01 1.4626817234396729e-03  1.3882789797791740e-04 -5.6451786371150148e-01 1.5381225196825245e-03  -4.9331948407318776e-01 -4.5183610016651482e-01 -1.8854864772803502e-04  -7.7882376306283296e-01 -1.5926765764110243e-01 9.6898847548507270e-04  -7.5398730963075267e-01 2.0132414337756668e-01 3.0904362924587632e-03  -4.5343305961799862e-01 4.9329118271029671e-01 3.3319224587126666e-03  -9.3152533656659447e-04 6.0518329217259081e-01 1.7939161795353042e-03  4.5183610016657960e-01 4.9331948407322435e-01 1.8854864772829561e-04  7.5289955516892060e-01 2.0048177588112287e-01 3.0317718832029958e-04  7.7823733519155014e-01 -1.6110948666704672e-01 2.3028749921202366e-03  4.9329118271028649e-01 -4.5343305961800939e-01 3.3319224587126913e-03  1.3882789797791740e-04 -5.6451786371150148e-01 1.5381225196825245e-03  -1.5920712611611516e-14 1.7949152322675068e-14 8.1526908565033358e-16  -6.0518329217257327e-01 9.3152533659770359e-04 -1.7939161795350789e-03  -9.5984813406857528e-01 1.2070660980290744e-03 -6.0306902331513793e-04  -9.3479841239140915e-01 7.2629239141582512e-04 1.4626817234393655e-03  -5.6451786371147250e-01 1.3882789796713953e-04 1.5381225196824859e-03  6.5453488470767528e-15 -3.4599922748498333e-14 2.5354937500288345e-16  5.6451786371154045e-01 -1.3882789799185942e-04 -1.5381225196828695e-03  9.3479841239131922e-01 -7.2629239142756887e-04 -1.4626817234396166e-03  9.5984813406858449e-01 -1.2070660980147681e-03 6.0306902331585708e-04  6.0518329217255884e-01 -9.3152533657041108e-04 1.7939161795348275e-03  -1.5920712611611516e-14 1.7949152322675068e-14 8.1526908565033358e-16  -2.6054174930649709e-03 -1.4026891185663251e-03 5.1301340747742976e-03  -4.8533855655375469e-01 -9.1235462616316330e-04 2.6183595871615423e-03  -7.7148930846590236e-01 -1.1787632176613358e-03 1.0916211291212347e-04  -7.5710145693316899e-01 -1.9244390574666781e-03 1.1169765079166976e-03  -4.6166673819396548e-01 -2.4819746367357016e-03 4.0158454555278191e-03  -1.4026891185706155e-03 -2.6054174930680365e-03 5.1301340747743401e-03  4.6165637670239973e-01 -2.7395169650205743e-03 3.0734528547028649e-03  7.6130760678902187e-01 -3.0399949768786017e-03 2.4809795513901185e-04  7.7485041440652458e-01 -2.9891000015723084e-03 5.0719605049942182e-04  4.8328131030787841e-01 -2.3099917100212514e-03 3.7209868179012518e-03  -2.6054174930649709e-03 -1.4026891185663251e-03 5.1301340747742976e-03  -2.7395169650090653e-03 4.6165637670249737e-01 3.0734528547029447e-03  -3.9474929844028717e-01 3.7144517003241800e-01 5.5378452826487367e-04  -6.2454034783961865e-01 1.3455169727575045e-01 -2.1010504320512174e-03  -6.1001691779665590e-01 -1.5826752318959805e-01 -1.3029190891333288e-03  -3.7064448407925954e-01 -3.9509430961565750e-01 1.5163821993080557e-03  -9.1235462617036348e-04 -4.8533855655377206e-01 2.6183595871613757e-03  3.7144517003238703e-01 -3.9474929844031953e-01 5.5378452826497959e-04  6.1475697097325976e-01 -1.5842400312327642e-01 -2.1416489635590358e-03  6.2819175732956878e-01 1.3368364057319460e-01 -1.6666660610005349e-03  3.9263587985913606e-01 3.7063132607017907e-01 1.6474201814332822e-03  -2.7395169650090653e-03 4.6165637670249737e-01 3.0734528547029447e-03  -3.0399949768753678e-03 7.6130760678903908e-01 2.4809795513954365e-04  -1.5842400312328306e-01 6.1475697097326931e-01 -2.1416489635588823e-03  -2.4160655909504550e-01 2.3123196300626370e-01 -4.8012058604372191e-03  -2.2715237024316748e-01 -2.4237819476242073e-01 -4.0903374345936626e-03  -1.3439510268839186e-01 -6.2548313273996770e-01 -1.1050309260392896e-03  -1.1787632176633723e-03 -7.7148930846597830e-01 1.0916211291227485e-04  1.3455169727574254e-01 -6.2454034783965684e-01 -2.1010504320512018e-03  2.3123196300625790e-01 -2.4160655909504414e-01 -4.8012058604372807e-03  2.4478987976078284e-01 2.3124222512494599e-01 -4.2349196842261299e-03  1.5582308724305721e-01 6.1447513639224971e-01 -1.0702504125020568e-03  -3.0399949768753678e-03 7.6130760678903908e-01 2.4809795513954365e-04  -2.9891000015730032e-03 7.7485041440653823e-01 5.0719605049901460e-04  1.3368364057320223e-01 6.2819175732957189e-01 -1.6666660610005954e-03  2.3124222512494150e-01 2.4478987976079888e-01 -4.2349196842263225e-03  2.4542366078536795e-01 -2.2856099196766652e-01 -3.5272839541226090e-03  1.5703674087971800e-01 -6.1136838413783168e-01 -2.6013640137286827e-04  -1.9244390574665571e-03 -7.5710145693319919e-01 1.1169765079166436e-03  -1.5826752318960080e-01 -6.1001691779664546e-01 -1.3029190891334439e-03  -2.4237819476242736e-01 -2.2715237024317006e-01 -4.0903374345939896e-03  -2.2856099196764582e-01 2.4542366078535277e-01 -3.5272839541230800e-03  -1.3634321145795256e-01 6.2830149313163408e-01 -6.5068310557254267e-04  -2.9891000015730032e-03 7.7485041440653823e-01 5.0719605049901460e-04  -2.3099917100187673e-03 4.8328131030790528e-01 3.7209868179016278e-03  3.7063132607018628e-01 3.9263587985912990e-01 1.6474201814334504e-03  6.1447513639220575e-01 1.5582308724306609e-01 -1.0702504125023262e-03  6.2830149313166606e-01 -1.3634321145794959e-01 -6.5068310557274411e-04  3.9303229998730377e-01 -3.7223203591086662e-01 2.6040168827864713e-03  -2.4819746367380309e-03 -4.6166673819399873e-01 4.0158454555275910e-03  -3.9509430961566983e-01 -3.7064448407922851e-01 1.5163821993081058e-03  -6.2548313273996314e-01 -1.3439510268838720e-01 -1.1050309260392565e-03  -6.1136838413785999e-01 1.5703674087971919e-01 -2.6013640137298796e-04  -3.7223203591088783e-01 3.9303229998729561e-01 2.6040168827865355e-03  -2.3099917100187673e-03 4.8328131030790528e-01 3.7209868179016278e-03  -1.4026891185607631e-03 -2.6054174930680322e-03 5.1301340747736393e-03  4.6165637670247001e-01 -2.7395169650173867e-03 3.0734528547031958e-03  7.6130760678900200e-01 -3.0399949768701575e-03 2.4809795513907690e-04  7.7485041440653402e-01 -2.9891000015740076e-03 5.0719605049919598e-04  4.8328131030788513e-01 -2.3099917100154999e-03 3.7209868179014622e-03  -2.6054174930738990e-03 -1.4026891185619039e-03 5.1301340747740348e-03  -4.8533855655379138e-01 -9.1235462616150078e-04 2.6183595871610986e-03  -7.7148930846588204e-01 -1.1787632176607627e-03 1.0916211291235860e-04  -7.5710145693322883e-01 -1.9244390574682804e-03 1.1169765079160233e-03  -4.6166673819399789e-01 -2.4819746367365468e-03 4.0158454555274010e-03  -1.4026891185607631e-03 -2.6054174930680322e-03 5.1301340747736393e-03  -9.1235462616196753e-04 -4.8533855655376645e-01 2.6183595871612552e-03  3.7144517003240096e-01 -3.9474929844029966e-01 5.5378452826487269e-04  6.1475697097327420e-01 -1.5842400312327640e-01 -2.1416489635588992e-03  6.2819175732956878e-01 1.3368364057320684e-01 -1.6666660610006800e-03  3.9263587985909382e-01 3.7063132607018290e-01 1.6474201814330128e-03  -2.7395169650158559e-03 4.6165637670244070e-01 3.0734528547028033e-03  -3.9474929844031020e-01 3.7144517003239236e-01 5.5378452826540417e-04  -6.2454034783969103e-01 1.3455169727574237e-01 -2.1010504320517144e-03  -6.1001691779666423e-01 -1.5826752318960149e-01 -1.3029190891333030e-03  -3.7064448407927375e-01 -3.9509430961568148e-01 1.5163821993077662e-03  -9.1235462616196753e-04 -4.8533855655376645e-01 2.6183595871612552e-03  -1.1787632176659222e-03 -7.7148930846596586e-01 1.0916211291184327e-04  1.3455169727573915e-01 -6.2454034783965529e-01 -2.1010504320518267e-03  2.3123196300625604e-01 -2.4160655909505077e-01 -4.8012058604375843e-03  2.4478987976079197e-01 2.3124222512494491e-01 -4.2349196842264274e-03  1.5582308724305657e-01 6.1447513639223428e-01 -1.0702504125020360e-03  -3.0399949768695868e-03 7.6130760678907550e-01 2.4809795513929342e-04  -1.5842400312327415e-01 6.1475697097322468e-01 -2.1416489635591360e-03  -2.4160655909505530e-01 2.3123196300625889e-01 -4.8012058604369667e-03  -2.2715237024316970e-01 -2.4237819476243869e-01 -4.0903374345939167e-03  -1.3439510268840854e-01 -6.2548313273995337e-01 -1.1050309260395147e-03  -1.1787632176659222e-03 -7.7148930846596586e-01 1.0916211291184327e-04  -1.9244390574681249e-03 -7.5710145693324482e-01 1.1169765079168160e-03  -1.5826752318959814e-01 -6.1001691779666800e-01 -1.3029190891333748e-03  -2.4237819476241926e-01 -2.2715237024318091e-01 -4.0903374345940425e-03  -2.2856099196768234e-01 2.4542366078538158e-01 -3.5272839541229343e-03  -1.3634321145793907e-01 6.2830149313157457e-01 -6.5068310557190895e-04  -2.9891000015705256e-03 7.7485041440659885e-01 5.0719605049968875e-04  1.3368364057321722e-01 6.2819175732963484e-01 -1.6666660610000113e-03  2.3124222512492928e-01 2.4478987976078567e-01 -4.2349196842264708e-03  2.4542366078535874e-01 -2.2856099196767624e-01 -3.5272839541225466e-03  1.5703674087973049e-01 -6.1136838413788652e-01 -2.6013640137282018e-04  -1.9244390574681249e-03 -7.5710145693324482e-01 1.1169765079168160e-03  -2.4819746367318062e-03 -4.6166673819400728e-01 4.0158454555274063e-03  -3.9509430961567849e-01 -3.7064448407927664e-01 1.5163821993079587e-03  -6.2548313273995604e-01 -1.3439510268839350e-01 -1.1050309260390646e-03  -6.1136838413785488e-01 1.5703674087972147e-01 -2.6013640137266693e-04  -3.7223203591084125e-01 3.9303229998730466e-01 2.6040168827868330e-03  -2.3099917100208680e-03 4.8328131030790034e-01 3.7209868179018239e-03  3.7063132607017740e-01 3.9263587985917064e-01 1.6474201814332600e-03  6.1447513639226059e-01 1.5582308724305363e-01 -1.0702504125022763e-03  6.2830149313164341e-01 -1.3634321145794939e-01 -6.5068310557271256e-04  3.9303229998727612e-01 -3.7223203591084858e-01 2.6040168827868374e-03  -2.4819746367318062e-03 -4.6166673819400728e-01 4.0158454555274063e-03  -2.6054174930649709e-03 -1.4026891185663251e-03 5.1301340747742976e-03  -4.8533855655375469e-01 -9.1235462616316330e-04 2.6183595871615423e-03  -7.7148930846590236e-01 -1.1787632176613358e-03 1.0916211291212347e-04  -7.5710145693316899e-01 -1.9244390574666781e-03 1.1169765079166976e-03  -4.6166673819396548e-01 -2.4819746367357016e-03 4.0158454555278191e-03  -1.4026891185706155e-03 -2.6054174930680365e-03 5.1301340747743401e-03  4.6165637670239973e-01 -2.7395169650205743e-03 3.0734528547028649e-03  7.6130760678902187e-01 -3.0399949768786017e-03 2.4809795513901185e-04  7.7485041440652458e-01 -2.9891000015723084e-03 5.0719605049942182e-04  4.8328131030787841e-01 -2.3099917100212514e-03 3.7209868179012518e-03  -2.6054174930649709e-03 -1.4026891185663251e-03 5.1301340747742976e-03  -2.0449448447166932e-03 -4.3313102644182725e-04 3.1819808245704172e-03  -1.7829024383712769e-01 -4.0224196675277642e-04 3.4170641573124313e-03  -2.8960107993932827e-01 -8.4942473296303455e-04 1.0087423079499288e-03  -2.9306795222718951e-01 -1.4798900335773325e-03 -5.9386691932708285e-04  -1.8346033308561455e-01 -1.9157175847843595e-03 7.9245332164317817e-04  -4.3313102643944114e-04 -2.0449448447127988e-03 3.1819808245713926e-03  1.8423727201349718e-01 -2.0083588296596184e-03 3.4291723906924149e-03  2.9604800309372625e-01 -1.8530642142242963e-03 1.2640764909088733e-03  2.9137390077149500e-01 -1.4678290316743922e-03 -4.5740534679325191e-04  1.7624868875258859e-01 -8.9447286318520137e-04 6.8583964114975486e-04  -2.0449448447166932e-03 -4.3313102644182725e-04 3.1819808245704172e-03  -2.0083588296580146e-03 1.8423727201349427e-01 3.4291723906925199e-03  -1.4351296475427819e-01 1.4955205216980205e-01 3.6662812344784375e-03  -2.3331490003621708e-01 5.8686948279563250e-02 1.2579992097389091e-03  -2.3682337842430168e-01 -5.3469737842260522e-02 -3.6893245413709234e-04  -1.4873017531043609e-01 -1.4395180007107719e-01 1.0108125912791129e-03  -4.0224196674927429e-04 -1.7829024383713479e-01 3.4170641573129743e-03  1.4955205216979758e-01 -1.4351296475426123e-01 3.6662812344788291e-03  2.3987616993209659e-01 -5.2926492493624765e-02 1.5057564033255668e-03  2.3523552800401115e-01 5.8974125297509665e-02 -1.8999831403901257e-04  1.4159699888580055e-01 1.4956775962018190e-01 9.5418376641996660e-04  -2.0083588296580146e-03 1.8423727201349427e-01 3.4291723906925199e-03  -1.8530642142219108e-03 2.9604800309371837e-01 1.2640764909088199e-03  -5.2926492493628248e-02 2.3987616993210481e-01 1.5057564033255178e-03  -8.6826338840991599e-02 9.3075428221863210e-02 -9.0149412022220174e-04  -9.0595141654324376e-02 -8.8037149873536599e-02 -2.6380121836801604e-03  -5.8714307920396669e-02 -2.3415668567813969e-01 -1.3827464868367838e-03  -8.4942473296360538e-04 -2.8960107993934459e-01 1.0087423079499828e-03  5.8686948279561786e-02 -2.3331490003621203e-01 1.2579992097388449e-03  9.3075428221870288e-02 -8.6826338840992959e-02 -9.0149412022233607e-04  8.8673009632333141e-02 9.3981237226674369e-02 -2.4846829311120176e-03  5.1261980665660754e-02 2.4022130289417543e-01 -1.2219187207193917e-03  -1.8530642142219108e-03 2.9604800309371837e-01 1.2640764909088199e-03  -1.4678290316743332e-03 2.9137390077147363e-01 -4.5740534679272738e-04  5.8974125297506494e-02 2.3523552800399442e-01 -1.8999831403887382e-04  9.3981237226657369e-02 8.8673009632315031e-02 -2.4846829311120692e-