<?xml version="1.0"?>
<VTKFile type="UnstructuredGrid"  version="0.1"  >
<UnstructuredGrid>
<Piece  NumberOfPoints="1380" NumberOfCells="2630">
<Points>
<DataArray  type="Float64"  NumberOfComponents="3"  format="ascii">-1 -1 0  1 -1 0  1 1 0  -1 1 0  0 -1 0  1 0 0  0 1 0  -1 0 0  0 0 0  -1 -0.5 0  -0.5 -1 0  -0.5 1 0  -1 0.5 0  1 -0.5 0  0.5 -1 0  1 0.5 0  0.5 1 0  0.4166666666666666 -0.4166666666666667 0  -0.4166666666666667 0.4166666666666667 0  -0.25 -0.5 0  0.5 0.25 0  -0.4861111111111112 -0.06944444444444445 0  0.0732758620689655 0.507183908045977 0  -0.625 -0.625 0  0.625 0.625 0  0.7380952380952381 -0.25 0  -0.7099116161616161 0.2105429292929293 0  -0.25 0.7380952380952381 0  0.105392156862745 -0.6348039215686275 0  0.6770833333333334 -0.6770833333333333 0  -0.6770833333333334 0.6770833333333334 0  0.3472222222222222 -0.06944444444444446 0  -0.7264957264957265 -0.3044871794871795 0  0.3141940982507127 0.7297313660835709 0  0.02049587951122483 -0.3227479397556124 0  -0.2690972222222223 0.1475694444444444 0  0.3859500089908372 -0.7274430156831472 0  -0.2228477945123298 -0.1761765495248019 0  0.2182539682539683 0.1884920634920635 0  0.75 0.375 0  -0.145442219440968 -0.7602211097204841 0  0.7088913690476191 0.0427827380952381 0  -0.75 -1 0  -1 -0.75 0  1 0.75 0  0.75 1 0  -0.7439982703698937 -0.04614153195464455 0  -0.4609235096577606 -0.3356498099556895 0  0.4063134471431929 0.4895621842856023 0  0.25 -1 0  -0.25 -1 0  -0.75 1 0  0.75 -1 0  -1 -0.25 0  -1 0.25 0  1 -0.25 0  -0.25 1 0  1 -0.75 0  -1 0.75 0  0.25 1 0  1 0.25 0  -0.4041423272138783 -0.7597141090712928 0  0.06500839607911253 0.7578103030529481 0  -0.1572801182352047 0.3838997021864289 0  -0.6528005242053915 0.4409494757946086 0  -0.4930160984848485 0.1544744318181818 0  -0.4732142857142858 0.7752976190476191 0  0.6398809523809523 -0.4538690476190476 0  0.5166054117396399 -0.2161233620965164 0  -0.002273787244753427 0.2232363985975174 0  0.1500564496765022 -0.1524955293952667 0  0.2016720420046758 -0.4410343282803009 0  -0.08495178036419618 0.6274139771124571 0  -0.8367311471133162 0.3642591720794645 0  -0.8333333333333334 -0.625 0  -0.594323836800685 -0.8231079456002283 0  -0.4466957714776065 -0.5349126855671806 0  0.8125 0.5625 0  0.78125 0.78125 0  0.5091392650016769 0.7947130883338923 0  0.125 -0.8382681931833136 0  -0.8184523809523809 -0.8184523809523809 0  -0.07781530426104531 -0.5819319697006881 0  0.5085055196703295 0.04967610411902112 0  0.2918471072074933 -0.276017202318847 0  0.5120763537765269 -0.5898771553229597 0  0.625 -0.8585349462365591 0  0.8158532234335381 -0.8158532234335381 0  -0.5198088446315396 0.5739411553684605 0  -0.8585349462365591 0.625 0  -0.8150493805516597 0.8156205699829586 0  0.8585349462365591 -0.625 0  -0.2688268348649726 0.5439331383603209 0  0.8242100426758139 -0.4436043596336612 0  0.5833756314287952 0.4479378157143976 0  0.8690476190476191 -0.125 0  -0.125 0.8690476190476191 0  -0.8692745600729823 0.125 0  0.8696725120759167 0.125 0  -0.625 0.8711516477451908 0  0.2339522463269718 0.3879558377955778 0  0.2453709502295031 0.5655822922838026 0  0.1730610651637797 0.02021709580868947 0  0.3245402594056757 -0.5644672020485209 0  -0.7291666666666666 -0.4816595441595442 0  -1 -0.375 0  -0.5811140848639904 -0.2127276307675001 0  0.673332592838314 0.2158348143233718 0  0.375 1 0  -0.5714768890989919 0.2985103444040069 0  -1 -0.125 0  -0.8453692574786325 -0.1875 0  -0.3144549134065865 -0.02408675326008025 0  -0.2898414972096258 -0.3336092734780093 0  -0.1075052092206287 -0.4224330421314983 0  -0.05043970703604117 -0.1652278959397459 0  0.6459672950297897 -0.1113415301525317 0  0.4645210271029513 0.6398480556579343 0  0.3512863754411909 0.0937979496253573 0  -0.6063160985568274 0.03891469652249891 0  -0.3428819444444445 0.8690476190476191 0  0.625 1 0  -0.1602164796159982 0.02697860906625157 0  0.04648110064133829 -0.4808416424239687 0  1 0.875 0  -0.3836102479201657 0.6484936449177356 0  -0.3776011723096096 0.263078478984336 0  -0.6024978259969829 -0.3949628096211138 0  0.125 1 0  0.2010781308272777 0.8456221018461906 0  0.2822509696388829 -0.845902544691141 0  -0.3285533674953515 -0.6289773550938936 0  0.3461306793221754 0.278777492464833 0  0.4737475672408696 -0.8508448959534423 0  0.2384632828836344 -0.7029523187242811 0  -0.004777287059791593 0.3759269695907358 0  -0.8499735021850066 -0.3912320205328522 0  0.1222536293721587 0.2963971539625205 0  -0.3769456520999688 -0.203572526805711 0  -0.2749617205755651 -0.8464290792698902 0  0.004805888512766143 -0.747174355248311 0  -0.125 -1 0  -0.06001061822252458 -0.8724007765244854 0  0.875 0.4375 0  0.854421179608893 0.271342359217786 0  0.875 1 0  -0.1499861095763589 0.2358309656934888 0  0.3381943639137225 0.8663061796405532 0  -0.7853090110442228 0.4998412775277108 0  0.7398165998560814 -0.5535192694951373 0  0.1580042122341573 -0.3100246140259917 0  -0.7291666666666667 -0.7142857142857142 0  -0.375 -1 0  0.6483368386154684 0.8514905990110488 0  -0.1295370103291928 -0.2826118305021242 0  0.07458201853700455 0.1123894386563915 0  0.6146465857036327 -0.3161203659316075 0  0.5551898493894731 -0.740296118159085 0  0.375 -1 0  0.482702798370208 -0.084133350091034 0  0.87890625 0.68359375 0  -0.05917195534525846 0.4971092425697621 0  0.1260710309213975 0.6343750312956699 0  0.8690476190476191 -0.3077066815262848 0  -0.2912010232560567 0.3668168386732139 0  -0.875 1 0  -1 0.875 0  1 -0.875 0  0.875 -1 0  -0.8689564281364567 -0.006189266075306407 0  -0.7449425635110547 0.08458938160051771 0  -0.7150266761936593 -0.1739444581417552 0  -0.5260034831318311 -0.711099823962112 0  -0.4724626808827322 -0.871722230709409 0  0.4734436795977052 0.377714794132168 0  -0.875 -1 0  -1 -0.875 0  0.6927189078571988 0.5156567235715964 0  -0.3742497615796874 -0.4296005251260107 0  -0.1969436423297711 -0.6387157229772615 0  -0.6179496409766825 -0.08933356056510935 0  -0.424405057115988 0.04452428810878029 0  -0.08479048335844169 0.1279607007132633 0  0.003830300099055113 0.8712085230656206 0  0.8748778838820267 -1.379218479898026e-05 0  -0.375 1 0  -0.625 1 0  1 0.125 0  -0.125 1 0  1 -0.375 0  1 -0.125 0  1 -0.625 0  0.625 -1 0  0.125 -1 0  -0.625 -1 0  -1 -0.625 0  -1 0.125 0  -1 0.375 0  -1 0.625 0  1 0.375 0  1 0.625 0  0.6325660748712082 0.3335187599557389 0  -0.06420945895056573 0.7549874027425891 0  -0.8769015540914771 0.2478802253893416 0  0.871875 0.871875 0  -0.6868091492840067 0.3270978624973681 0  -0.5363597469565949 0.412994850055505 0  -0.6803734992638302 0.5574295000651103 0  -0.7076253581162534 -0.8803439094224437 0  -0.8778089002295137 -0.5106896447504627 0  -0.3860184984222981 0.530566778071246 0  0.6109900617121508 0.1128453077697081 0  0.3896945134930274 -0.1915382873255086 0  0.7605656944697778 -0.06822134873122943 0  0.3576151269893478 0.5948388411612135 0  -0.5689902680792265 -0.5143596830118065 0  0.6262446286847614 -0.5735657901943212 0  0.2030558252325225 -0.5625263842513452 0  0.6123273142928579 0.7407533260723429 0  0.4016460890123554 -0.3042863223111857 0  -0.59039693199147 0.7578418819188018 0  0.7276932493917544 -0.3705808024528924 0  0.5222536818742854 -0.4713886230400014 0  -0.5101986527137737 0.8848365765607674 0  0.510560172809238 0.5356013299918891 0  -0.3603569195756083 0.75823710606415 0  0.1967279277813232 0.728226870058472 0  -0.6086880986371127 0.1545624071548516 0  -0.38105366729386 0.1511189987807864 0  -0.2944659463671584 -0.7359061804869591 0  0.5060729154966499 -0.3475227845833823 0  -0.09281616240412746 -0.06197858250969457 0  0.7649739583333334 0.6673177083333334 0  0.7628906249999999 0.890234375 0  -0.2666864184909611 0.2585504071132311 0  0.3635064892129658 0.3878003602709461 0  -0.2339409722222222 0.8901937905844155 0  -0.1718792125974916 -0.8957733325456778 0  0.1001768566329531 0.4023510017391879 0  0.3120260172693757 -0.4540546875576884 0  0.7804062804433681 0.1896628610854537 0  0.4087715451998049 0.187961780041608 0  -0.1584963477271457 0.5451611892421655 0  -0.8926817849258324 0.463022006336401 0  0.2338091473445219 -0.07576267331277289 0  0.08171112182813692 -0.2349087687359925 0  0.04635385178956847 -0.1044635073718474 0  -0.4377391632114205 -0.6448874471423088 0  -0.1907678351227189 0.6480215912813945 0  0.300605946475244 0.4741444604171038 0  -0.2145033720757486 -0.06751709909419711 0  0.6069191921170397 -0.005492331448357812 0  0.0214718770761248 0.6032397936031719 0  0.5476675683364878 0.8992752415326501 0  0.4387475014316537 0.9093708953002239 0  -0.4932997685306436 -0.4381009159993523 0  0.2515197695339056 -0.1791673369138964 0  -0.7291666666666667 -0.6088789682539681 0  -0.9166666666666667 -0.6875 0  0.620579540363709 -0.2122431523583302 0  -0.484950136419973 0.6719440339397442 0  0.2857044415400258 0.0137589173127316 0  -0.8945708364098356 -0.288306105327986 0  0.4043102720140535 0.7842914560451557 0  0.04123256238752064 -0.9026968245801402 0  0.2003676884403109 -0.9091888601740487 0  0.1068775558538842 -0.7373377130403223 0  -0.4804566783514427 -0.1763307203045643 0  0.108286342087769 -0.3993789328997278 0  -0.191883080105361 -0.3640821726430649 0  -0.07025064492006244 0.2984876656890053 0  -0.7039324641409584 0.788312126296613 0  -0.7311286585775438 0.8932502354831682 0  0.5171409396884947 0.1503852691889257 0  0.4229392823658633 -0.003216522184234835 0  -0.5621736087218259 -0.919558629836806 0  -0.626474064879544 -0.7266572613636506 0  0.2446828746617422 0.2867616783302419 0  0.1759429608742923 0.4776611759306416 0  -0.3468240303741654 -0.5260416435617549 0  -0.7465808808425306 0.4069574477998361 0  -0.7819962170660292 0.2802441065650652 0  -0.3742623214119594 -0.8547800509641984 0  0.1014498009713561 0.8506721983266377 0  0.4285217620918213 -0.5230190595570253 0  0.4091738370487775 -0.6256346204225141 0  0.78125 0.46875 0  0.90625 0.53125 0  -0.4791801348852565 0.2553992655702126 0  0.7843318610782772 -0.7086046956885941 0  0.8909728264971901 -0.7355183796514634 0  0.7041908166528879 -0.7830649143180282 0  0.7311821352
[...]
<PointData  Vectors="f_22"> 
<DataArray  type="Float64"  Name="f_22"  NumberOfComponents="3" format="ascii">-2.7926995926005221e-03 -2.8397592460412810e-03 0.0000000000000000e+00  -2.7926995926005221e-03 -2.8397592460412810e-03 0.0000000000000000e+00  -2.7926995926005221e-03 -2.8397592460412810e-03 0.0000000000000000e+00  -2.7926995926005221e-03 -2.8397592460412810e-03 0.0000000000000000e+00  -2.7922843325340909e-03 -2.9646038770264923e-03 0.0000000000000000e+00  -2.9276712952521090e-03 -2.8392491376543279e-03 0.0000000000000000e+00  -2.7922843325340909e-03 -2.9646038770264923e-03 0.0000000000000000e+00  -2.9276712952521090e-03 -2.8392491376543279e-03 0.0000000000000000e+00  -2.9280485875241035e-03 -2.9651253554867567e-03 0.0000000000000000e+00  -1.6366249216566771e-03 -2.8394770086019568e-03 0.0000000000000000e+00  -2.7924905915086757e-03 -1.6787340391311522e-03 0.0000000000000000e+00  -2.7924905915086757e-03 -1.6787340391311522e-03 0.0000000000000000e+00  -4.0837603780345478e-03 -2.8394549813939209e-03 0.0000000000000000e+00  -1.6366249216566771e-03 -2.8394770086019568e-03 0.0000000000000000e+00  -2.7924492572927746e-03 -4.1257032520313442e-03 0.0000000000000000e+00  -4.0837603780345478e-03 -2.8394549813939209e-03 0.0000000000000000e+00  -2.7924492572927746e-03 -4.1257032520313442e-03 0.0000000000000000e+00  -1.6956315433642182e-03 -4.1000592189653082e-03 0.0000000000000000e+00  -4.0593455692297794e-03 -1.7364707565046640e-03 0.0000000000000000e+00  -1.6368216644607823e-03 -2.0815099685089476e-03 0.0000000000000000e+00  -3.7733892543463064e-03 -4.1258251931114648e-03 0.0000000000000000e+00  -2.6615121099818465e-03 -1.6826770205756415e-03 0.0000000000000000e+00  -4.0819433525191113e-03 -3.2424756016974665e-03 0.0000000000000000e+00  -1.7041396435211339e-03 -1.7481122370511693e-03 0.0000000000000000e+00  -3.9649263138873863e-03 -4.0087561478169848e-03 0.0000000000000000e+00  -2.0426444821653763e-03 -3.7561569948080160e-03 0.0000000000000000e+00  -3.6649842836054981e-03 -1.8966368339080831e-03 0.0000000000000000e+00  -3.7108026330032865e-03 -2.0811859776283920e-03 0.0000000000000000e+00  -1.7167645312519372e-03 -3.3590536085915607e-03 0.0000000000000000e+00  -1.7852899631099126e-03 -3.9079496563261054e-03 0.0000000000000000e+00  -3.8633310468185146e-03 -1.8300623123229372e-03 0.0000000000000000e+00  -2.6615253845420446e-03 -4.0164776443993794e-03 0.0000000000000000e+00  -1.8993308070456066e-03 -1.9347387798724226e-03 0.0000000000000000e+00  -3.7340318998038855e-03 -3.9576913216893359e-03 0.0000000000000000e+00  -1.8573229879249380e-03 -3.0436132095481880e-03 0.0000000000000000e+00  -3.4679226225280942e-03 -2.0284297812467830e-03 0.0000000000000000e+00  -1.8913220991501774e-03 -4.0697935651521511e-03 0.0000000000000000e+00  -2.2748067834834377e-03 -2.1620830544208953e-03 0.0000000000000000e+00  -3.5995029966242416e-03 -3.7256494661170388e-03 0.0000000000000000e+00  -4.0166264172555016e-03 -3.7230912846207688e-03 0.0000000000000000e+00  -1.9738372553311885e-03 -2.4186016189127304e-03 0.0000000000000000e+00  -3.0911221438877073e-03 -3.8331315301927899e-03 0.0000000000000000e+00  -2.7926123357985212e-03 -1.9929788411719093e-03 0.0000000000000000e+00  -1.9473277444198433e-03 -2.8396714163291324e-03 0.0000000000000000e+00  -3.6776212656481257e-03 -2.8396367174690225e-03 0.0000000000000000e+00  -2.7926197412918448e-03 -3.7231351212010698e-03 0.0000000000000000e+00  -2.7502937776075717e-03 -1.9772808941949543e-03 0.0000000000000000e+00  -1.8297435447174541e-03 -1.6957969479025488e-03 0.0000000000000000e+00  -4.0855404723569811e-03 -4.0914611566660588e-03 0.0000000000000000e+00  -2.7923320261939392e-03 -3.8115106153873359e-03 0.0000000000000000e+00  -2.7923337772977311e-03 -2.0812370681452972e-03 0.0000000000000000e+00  -2.7926123357985212e-03 -1.9929788411719093e-03 0.0000000000000000e+00  -2.7926197412918448e-03 -3.7231351212010698e-03 0.0000000000000000e+00  -2.0426941074853473e-03 -2.8393296200715235e-03 0.0000000000000000e+00  -3.7730877568044859e-03 -2.8393087502606652e-03 0.0000000000000000e+00  -2.0426941074853473e-03 -2.8393296200715235e-03 0.0000000000000000e+00  -2.7923337772977311e-03 -2.0812370681452972e-03 0.0000000000000000e+00  -1.9473277444198433e-03 -2.8396714163291324e-03 0.0000000000000000e+00  -3.6776212656481257e-03 -2.8396367174690225e-03 0.0000000000000000e+00  -2.7923320261939392e-03 -3.8115106153873359e-03 0.0000000000000000e+00  -3.7730877568044859e-03 -2.8393087502606652e-03 0.0000000000000000e+00  -1.9726827972241833e-03 -1.7524537853913151e-03 0.0000000000000000e+00  -3.6547115702146968e-03 -3.2115874649492502e-03 0.0000000000000000e+00  -4.0273581597524855e-03 -2.3771670850727183e-03 0.0000000000000000e+00  -4.0750122940245159e-03 -1.7878528716253671e-03 0.0000000000000000e+00  -3.4907412373298180e-03 -1.6803055580784125e-03 0.0000000000000000e+00  -3.6021889692285126e-03 -1.6881926271414731e-03 0.0000000000000000e+00  -1.6589949216984418e-03 -3.9825103734446587e-03 0.0000000000000000e+00  -2.1443445274394227e-03 -4.1206007593017260e-03 0.0000000000000000e+00  -3.7015283337388412e-03 -2.9563697108827194e-03 0.0000000000000000e+00  -2.3563571124791496e-03 -3.5138712174912438e-03 0.0000000000000000e+00  -1.6699179653265166e-03 -3.6770182618744551e-03 0.0000000000000000e+00  -3.9604644503252661e-03 -2.6398636841214714e-03 0.0000000000000000e+00  -4.0019937661853952e-03 -2.2469567442684850e-03 0.0000000000000000e+00  -1.7040706972210706e-03 -2.2363937183896704e-03 0.0000000000000000e+00  -2.1574075191820685e-03 -1.7139433897525994e-03 0.0000000000000000e+00  -1.6368322281104066e-03 -1.7064917725772859e-03 0.0000000000000000e+00  -4.0472078691264736e-03 -3.5298912658542560e-03 0.0000000000000000e+00  -3.5842647141138603e-03 -3.6300764904798823e-03 0.0000000000000000e+00  -3.5417597024426494e-03 -4.1235105933950904e-03 0.0000000000000000e+00  -2.2055596362741763e-03 -3.4281208441362689e-03 0.0000000000000000e+00  -2.1428214516523384e-03 -2.1891456176714097e-03 0.0000000000000000e+00  -1.6597361626831538e-03 -2.6668982193818001e-03 0.0000000000000000e+00  -3.1173027408377876e-03 -4.1235926032990432e-03 0.0000000000000000e+00  -1.9709846453878606e-03 -3.9114029075227093e-03 0.0000000000000000e+00  -1.6659837324033637e-03 -4.1222224925850891e-03 0.0000000000000000e+00  -2.2729950162557631e-03 -4.0085407269815033e-03 0.0000000000000000e+00  -2.1345835992941471e-03 -3.5187473033456780e-03 0.0000000000000000e+00  -4.0350166688498373e-03 -1.6770166209778895e-03 0.0000000000000000e+00  -3.9646632654510286e-03 -2.3195758352462410e-03 0.0000000000000000e+00  -3.4733043204538050e-03 -2.1784031078590097e-03 0.0000000000000000e+00  -1.7038536579494696e-03 -3.3715590693236376e-03 0.0000000000000000e+00  -4.0625623578392197e-03 -2.0289421340755195e-03 0.0000000000000000e+00  -1.6675516380517739e-03 -3.4904566096082184e-03 0.0000000000000000e+00  -4.0786635183748324e-03 -4.0678789460699407e-03 0.0000000000000000e+00  -2.4542469298697344e-03 -3.3337117658678969e-03 0.0000000000000000e+00  -3.2871679749221093e-03 -2.4916586226087908e-03 0.0000000000000000e+00  -3.3907368115319875e-03 -2.3559919645160824e-03 0.0000000000000000e+00  -3.3908088949704432e-03 -3.3315268224756475e-03 0.0000000000000000e+00  -3.2797564916243064e-03 -1.7479139659403848e-03 0.0000000000000000e+00  -4.0322669075393914e-03 -3.7693384807996303e-03 0.0000000000000000e+00  -4.0441471985793150e-03 -3.7997735692790872e-03 0.0000000000000000e+00  -3.0056019493084583e-03 -3.5890166595271581e-03 0.0000000000000000e+00  -1.6477940849525879e-03 -3.9771320526231129e-03 0.0000000000000000e+00  -1.6427461057341196e-03 -1.9411925359306846e-03 0.0000000000000000e+00  -1.7555797811340521e-03 -2.8393841122928212e-03 0.0000000000000000e+00  -2.1552279443424198e-03 -1.7025121921001171e-03 0.0000000000000000e+00  -3.6804820637608808e-03 -3.9162385552879006e-03 0.0000000000000000e+00  -2.7923866108823803e-03 -4.0564740364677611e-03 0.0000000000000000e+00  -3.8865322752449894e-03 -1.6952849255512607e-03 0.0000000000000000e+00  -2.4542812459890798e-03 -2.8392400340183999e-03 0.0000000000000000e+00  -2.2365779966879561e-03 -2.2753771134442018e-03 0.0000000000000000e+00  -2.8353393131874834e-03 -1.9154326021389536e-03 0.0000000000000000e+00  -1.8340527012246355e-03 -1.9745426984556849e-03 0.0000000000000000e+00  -1.6892389621008289e-03 -2.5561012100500033e-03 0.0000000000000000e+00  -2.3121814716257449e-03 -2.7712502088900154e-03 0.0000000000000000e+00  -2.5042906858319981e-03 -3.9713148926638041e-03 0.0000000000000000e+00  -3.9389383496533422e-03 -4.1252350488895934e-03 0.0000000000000000e+00  -3.2804813352888913e-03 -4.0229786244265235e-03 0.0000000000000000e+00  -3.0765232635026328e-03 -1.7256755825208960e-03 0.0000000000000000e+00  -3.2871915072650512e-03 -1.8542974467003241e-03 0.0000000000000000e+00  -2.7925114037860546e-03 -4.0086516212100966e-03 0.0000000000000000e+00  -3.0313799277503954e-03 -2.3671865577425052e-03 0.0000000000000000e+00  -1.6429002076347925e-03 -3.1422628839591093e-03 0.0000000000000000e+00  -3.2660335516628285e-03 -2.8396792556845958e-03 0.0000000000000000e+00  -3.9222511686950448e-03 -1.7818285735736693e-03 0.0000000000000000e+00  -3.8059067028662938e-03 -1.7915131288436627e-03 0.0000000000000000e+00  -1.7247811208302810e-03 -1.7219432215226300e-03 0.0000000000000000e+00  -2.7923020946718220e-03 -3.4280805507267654e-03 0.0000000000000000e+00  -3.3706270718972834e-03 -3.6751419574948549e-03 0.0000000000000000e+00  -2.2306230084338779e-03 -3.8898349048096716e-03 0.0000000000000000e+00  -1.7092094419983433e-03 -1.8841823902050129e-03 0.0000000000000000e+00  -3.8435291977556483e-03 -4.0148554196570005e-03 0.0000000000000000e+00  -2.2470657589308131e-03 -4.1265938051004911e-03 0.0000000000000000e+00  -1.8364953631741471e-03 -3.7811250929367947e-03 0.0000000000000000e+00  -4.0177559788033123e-03 -2.9466324854988480e-03 0.0000000000000000e+00  -1.7300884645246484e-03 -2.2908610637910332e-03 0.0000000000000000e+00  -3.8824490257086982e-03 -3.4190079402333881e-03 0.0000000000000000e+00  -2.1844537696905386e-03 -1.7928275618428306e-03 0.0000000000000000e+00  -2.2325592867079558e-03 -2.0126060777588962e-03 0.0000000000000000e+00  -1.9397940652378532e-03 -2.9831614993767676e-03 0.0000000000000000e+00  -2.7922871289064342e-03 -2.4916866187656571e-03 0.0000000000000000e+00  -2.3202502144597081e-03 -2.7342406265090462e-03 0.0000000000000000e+00  -4.0735075573550350e-03 -3.3125084187638600e-03 0.0000000000000000e+00  -3.8258926130095151e-03 -3.3861106962112014e-03 0.0000000000000000e+00  -2.7926513239166792e-03 -3.3126572368822960e-03 0.0000000000000000e+00  -3.7360209138769750e-03 -2.4027771223571826e-03 0.0000000000000000e+00  -3.2973060422904236e-03 -4.0014858098781202e-03 0.0000000000000000e+00  -4.0836252067056608e-03 -2.0890537011679158e-03 0.0000000000000000e+00  -1.6424030310765237e-03 -3.7514936308758423e-03 0.0000000000000000e+00  -1.8862241268918509e-03 -3.5401083234945564e-03 0.0000000000000000e+00  -1.8616428316492323e-03 -1.9412801357365308e-03 0.0000000000000000e+00  -2.7924063034705160e-03 -1.7957660450931673e-03 0.0000000000000000e+00  -3.3502213675954203e-03 -3.9672148839400984e-03 0.0000000000000000e+00  -1.9539334076944348e-03 -2.4757232232654140e-03 0.0000000000000000e+00  -3.3470010646923674e-03 -3.2474711131322033e-03 0.0000000000000000e+00  -1.8719318911003325e-03 -4.0248376068571417e-03 0.0000000000000000e+00  -1.9224740774874819e-03 -4.0964034165481503e-03 0.0000000000000000e+00  -2.7923866108823803e-03 -4.0564740364677611e-03 0.0000000000000000e+00  -2.6058050823760527e-03 -4.1272447505933865e-03 0.0000000000000000e+00  -3.8490425307104660e-03 -3.2984402861995655e-03 0.0000000000000000e+00  -4.0842461092237799e-03 -2.7376696232905948e-03 0.0000000000000000e+00  -3.9485717314709737e-03 -3.4320429350822588e-03 0.0000000000000000e+00  -1.8914325721475392e-03 -3.3337200596022624e-03 0.0000000000000000e+00  -4.0055782712600909e-03 -1.9708046812973658e-03 0.0000000000000000e+00  -2.7926813987821796e-03 -2.3763510691074082e-03 0.0000000000000000e+00  -3.2660335516628285e-03 -2.8396792556845958e-03 0.0000000000000000e+00  -2.3296342440178946e-03 -2.8397405391650181e-03 0.0000000000000000e+00  -2.7926513239166792e-03 -3.3126572368822960e-03 0.0000000000000000e+00  -2.9038931966372606e-03 -2.3549586667027259e-03 0.0000000000000000e+00  -3.2466969279651178e-03 -1.9796162295030472e-03 0.0000000000000000e+00  -2.2821447032526261e-03 -1.9082147726385587e-03 0.0000000000000000e+00  -1.8545365131303749e-03 -1.6778826676399144e-03 0.0000000000000000e+00  -2.3182377322121354e-03 -1.6887884312660312e-03 0.0000000000000000e+00  -4.0201602746708261e-03 -4.1268502097971029e-03 0.0000000000000000e+00  -2.7926813987821796e-03 -2.3763510691074082e-03 0.0000000000000000e+00  -2.3296342440178946e-03 -2.8397405391650181e-03 0.0000000000000000e+00  -4.0791483137695558e-03 -3.8726858849830125e-03 0.0000000000000000e+00  -1.6815180563214285e-03 -1.7972738998933233e-03 0.0000000000000000e+00  -1.7224964521285458e-03 -2.2436822030227396e-03 0.0000000000000000e+00  -2.5863186770424878e-03 -1.7390384899599013e-03 0.0000000000000000e+00  -3.0978353953573763e-03 -1.7278448542429325e-03 0.0000000000000000e+00  -3.4014114673690051e-03 -2.6408329194013182e-03 0.0000000000000000e+00  -3.2793519546385724e-03 -2.9793703911126256e-03 0.0000000000000000e+00  -2.9276204395473730e-03 -3.3126637323432633e-03 0.0000000000000000e+00  -2.7924063034705160e-03 -1.7957660450931673e-03 0.0000000000000000e+00  -2.7925300644563006e-03 -1.7479950741927602e-03 0.0000000000000000e+00  -3.3907382168415893e-03 -2.8392767252905259e-03 0.0000000000000000e+00  -2.7922871289064342e-03 -2.4916866187656571e-03 0.0000000000000000e+00  -1.7555797811340521e-03 -2.8393841122928212e-03 0.0000000000000000e+00  -2.4542812459890798e-03 -2.8392400340183999e-03 0.0000000000000000e+00  -1.7039678456824347e-03 -2.8395487070038456e-03 0.0000000000000000e+00  -2.7925114037860546e-03 -4.0086516212100966e-03 0.0000000000000000e+00  -2.7923020946718220e-03 -3.4280805507267654e-03 0.0000000000000000e+00  -2.7925300644563006e-03 -1.7479950741927602e-03 0.0000000000000000e+00  -1.7039678456824347e-03 -2.8395487070038456e-03 0.0000000000000000e+00  -3.3907382168415893e-03 -2.8392767252905259e-03 0.0000000000000000e+00  -4.0164533474752141e-03 -2.8393874531750770e-03 0.0000000000000000e+00  -3.9647814823034807e-03 -2.8395731218113784e-03 0.0000000000000000e+00  -4.0164533474752141e-03 -2.8393874531750770e-03 0.0000000000000000e+00  -3.9647814823034807e-03 -2.8395731218113784e-03 0.0000000000000000e+00  -3.9541638455439171e-03 -3.9958502185229268e-03 0.0000000000000000e+00  -3.6628874288447215e-03 -2.7182808368495359e-03 0.0000000000000000e+00  -3.7676079467496011e-03 -2.3824537268062190e-03 0.0000000000000000e+00  -3.2774126776303294e-03 -3.3239609540105125e-03 0.0000000000000000e+00  -3.9424255261138082e-03 -1.8485059868961825e-03 0.0000000000000000e+00  -4.0563577194532930e-03 -1.6793556428754877e-03 0.0000000000000000e+00  -4.0515341817057952e-03 -1.8361718058359032e-03 0.0000000000000000e+00  -2.3482333790028468e-03 -1.8921111993160929e-03 0.0000000000000000e+00  -1.6351510220590387e-03 -2.3859629156598606e-03 0.0000000000000000e+00  -4.0713459019618582e-03 -1.7781060386424746e-03 0.0000000000000000e+00  -3.3484665499489306e-03 -4.0306136446016843e-03 0.0000000000000000e+00  -2.2232927319547490e-03 -4.0742245477679365e-03 0.0000000000000000e+00  -2.6658940536444724e-03 -3.6921013106671202e-03 0.0000000000000000e+00  -4.0101342627206198e-03 -4.0325722486563758e-03 0.0000000000000000e+00  -1.6350819090097336e-03 -1.6940908293789016e-03 0.0000000000000000e+00  -1.6534556159972869e-03 -4.0062892757257934e-03 0.0000000000000000e+00  -1.6467705940389746e-03 -3.6810435977228172e-03 0.0000000000000000e+00  -3.7038671149614132e-03 -4.0288067074230683e-03 0.0000000000000000e+00  -1.8996015696738186e-03 -4.0867052269633738e-03 0.0000000000000000e+00  -3.6545593587282367e-03 -1.7101076372334860e-03 0.0000000000000000e+00  -1.7629117715332713e-03 -3.7843794503607787e-03 0.0000000000000000e+00  -1.6474070110185047e-03 -4.1180987683927450e-03 0.0000000000000000e+00  -3.2297995398869275e-03 -1.6772976271158639e-03 0.0000000000000000e+00  -4.0687757294089492e-03 -4.1231231430491760e-03 0.0000000000000000e+00  -3.6533056327626443e-03 -1.8210270783571168e-03 0.0000000000000000e+00  -3.7379853063882226e-03 -3.6621844759636641e-03 0.0000000000000000e+00  -3.4909481366265848e-03 -1.7282018540822816e-03 0.0000000000000000e+00  -3.4796866406188501e-03 -1.7860353097831419e-03 0.0000000000000000e+00  -1.9119677598054988e-03 -1.9627638301184399e-03 0.0000000000000000e+00  -1.8053339188350247e-03 -4.1240693241991356e-03 0.0000000000000000e+00  -2.6900514826470358e-03 -2.6107561707556133e-03 0.0000000000000000e+00  -3.8847966174880180e-03 -3.6794971099635902e-03 0.0000000000000000e+00  -3.2102500504950647e-03 -3.6856899790294476e-03 0.0000000000000000e+00  -3.7948027705684774e-03 -2.0348868867537096e-03 0.0000000000000000e+00  -4.0321232804580885e-03 -4.0412058675988937e-03 0.0000000000000000e+00  -3.2099527331566091e-03 -2.1280952036602154e-03 0.0000000000000000e+00  -2.4024807033547987e-03 -2.3267782448158601e-03 0.0000000000000000e+00  -4.0471877657464427e-03 -3.3407067447373639e-03 0.0000000000000000e+00  -1.6589128547641414e-03 -3.9532695391940979e-03 0.0000000000000000e+00  -3.6028550912011246e-03 -3.6323965317419317e-03 0.0000000000000000e+00  -3.5978974860309760e-03 -4.0936743508345318e-03 0.0000000000000000e+00  -4.0617030201504879e-03 -2.3728333675291694e-03 0.0000000000000000e+00  -4.0832582053862134e-03 -2.4381855938205741e-03 0.0000000000000000e+00  -2.6376240871960523e-03 -3.7689329121081720e-03 0.0000000000000000e+00  -2.0871508724101188e-03 -3.2736609519780722e-03 0.0000000000000000e+00  -2.5300840742196735e-03 -3.1420171811632736e-03 0.0000000000000000e+00  -1.7316916688740194e-03 -1.7144043974376083e-03 0.0000000000000000e+00  -3.9232194185853369e-03 -2.2636532266395956e-03 0.0000000000000000e+00  -4.0854046786234621e-03 -3.9303277327899016e-03 0.0000000000000000e+00  -2.6689670750142946e-03 -2.1879385760174923e-03 0.0000000000000000e+00  -2.9066895310400592e-03 -4.0365382388103449e-03 0.0000000000000000e+00  -3.9982981564092657e-03 -3.0471770609575839e-03 0.0000000000000000e+00  -3.1766706042918890e-03 -4.1027434339752124e-03 0.0000000000000000e+00  -3.1389025261900311e-03 -4.1151189833441041e-03 0.0000000000000000e+00  -1.6730212230279765e-03 -1.6805279617127585e-03 0.0000000000000000e+00  -2.2645467174714352e-03 -3.8156528421294999e-03 0.0000000000000000e+00  -1.6850582525382634e-03 -1.9412659110683631e-03 0.0000000000000000e+00  -1.8054303833146936e-03 -2.5252055768728442e-03 0.0000000000000000e+00  -2.1564413406121342e-03 -4.0155341892240768e-03 0.0000000000000000e+00  -3.8744428908676787e-03 -1.6828942875398169e-03 0.0000000000000000e+00  -2.9808363183530463e-03 -3.8980017560495384e-03 0.0000000000000000e+00  -1.9390766551660166e-03 -2.4449791763639169e-03 0.0000000000000000e+00  -3.5747122671002953e-03 -4.0894504844356345e-03 0.0000000000000000e+00  -2.4271990103811917e-03 -3.1221102180372597e-03 0.0000000000000000e+00  -2.4506729356406276e-03 -3.6729659709385590e-03 0.0000000000000000e+00  -1.9151716333121577e-03 -3.3643287817915323e-03 0.0000000000000000e+00  -2.2742558933527461e-03 -1.6850032596195325e-03 0.0000000000000000e+00  -1.7182794131118118e-03 -3.3695682364938868e-03 0.0000000000000000e+00  -1.7747175324210253e-03 -2.2603642503866267e-03 0.0000000000000000e+00  -3.8867533231781220e-03 -2.6956864206358305e-03 0.0000000000000000e+00  -3.5618600963317009e-03 -1.8839292223475073e-03 0.0000000000000000e+00  -3.1989395694854567e-03 -1.9458633421585599e-03 0.0000000000000000e+00  -3.4773804519400817e-03 -4.1206136480535730e-03 0.0000000000000000e+00  -2.9155476607795271e-03 -4.1050998884462255e-03 0.0000000000000000e+00  -2.4888374013827545e-03 -1.6899356578538556e-03 0.0000000000000000e+00  -1.8899954638298584e