<?xml version="1.0"?>
<VTKFile type="UnstructuredGrid"  version="0.1"  >
<UnstructuredGrid>
<Piece  NumberOfPoints="1380" NumberOfCells="2630">
<Points>
<DataArray  type="Float64"  NumberOfComponents="3"  format="ascii">-1 -1 0  1 -1 0  1 1 0  -1 1 0  0 -1 0  1 0 0  0 1 0  -1 0 0  0 0 0  -1 -0.5 0  -0.5 -1 0  -0.5 1 0  -1 0.5 0  1 -0.5 0  0.5 -1 0  1 0.5 0  0.5 1 0  0.4166666666666666 -0.4166666666666667 0  -0.4166666666666667 0.4166666666666667 0  -0.25 -0.5 0  0.5 0.25 0  -0.4861111111111112 -0.06944444444444445 0  0.0732758620689655 0.507183908045977 0  -0.625 -0.625 0  0.625 0.625 0  0.7380952380952381 -0.25 0  -0.7099116161616161 0.2105429292929293 0  -0.25 0.7380952380952381 0  0.105392156862745 -0.6348039215686275 0  0.6770833333333334 -0.6770833333333333 0  -0.6770833333333334 0.6770833333333334 0  0.3472222222222222 -0.06944444444444446 0  -0.7264957264957265 -0.3044871794871795 0  0.3141940982507127 0.7297313660835709 0  0.02049587951122483 -0.3227479397556124 0  -0.2690972222222223 0.1475694444444444 0  0.3859500089908372 -0.7274430156831472 0  -0.2228477945123298 -0.1761765495248019 0  0.2182539682539683 0.1884920634920635 0  0.75 0.375 0  -0.145442219440968 -0.7602211097204841 0  0.7088913690476191 0.0427827380952381 0  -0.75 -1 0  -1 -0.75 0  1 0.75 0  0.75 1 0  -0.7439982703698937 -0.04614153195464455 0  -0.4609235096577606 -0.3356498099556895 0  0.4063134471431929 0.4895621842856023 0  0.25 -1 0  -0.25 -1 0  -0.75 1 0  0.75 -1 0  -1 -0.25 0  -1 0.25 0  1 -0.25 0  -0.25 1 0  1 -0.75 0  -1 0.75 0  0.25 1 0  1 0.25 0  -0.4041423272138783 -0.7597141090712928 0  0.06500839607911253 0.7578103030529481 0  -0.1572801182352047 0.3838997021864289 0  -0.6528005242053915 0.4409494757946086 0  -0.4930160984848485 0.1544744318181818 0  -0.4732142857142858 0.7752976190476191 0  0.6398809523809523 -0.4538690476190476 0  0.5166054117396399 -0.2161233620965164 0  -0.002273787244753427 0.2232363985975174 0  0.1500564496765022 -0.1524955293952667 0  0.2016720420046758 -0.4410343282803009 0  -0.08495178036419618 0.6274139771124571 0  -0.8367311471133162 0.3642591720794645 0  -0.8333333333333334 -0.625 0  -0.594323836800685 -0.8231079456002283 0  -0.4466957714776065 -0.5349126855671806 0  0.8125 0.5625 0  0.78125 0.78125 0  0.5091392650016769 0.7947130883338923 0  0.125 -0.8382681931833136 0  -0.8184523809523809 -0.8184523809523809 0  -0.07781530426104531 -0.5819319697006881 0  0.5085055196703295 0.04967610411902112 0  0.2918471072074933 -0.276017202318847 0  0.5120763537765269 -0.5898771553229597 0  0.625 -0.8585349462365591 0  0.8158532234335381 -0.8158532234335381 0  -0.5198088446315396 0.5739411553684605 0  -0.8585349462365591 0.625 0  -0.8150493805516597 0.8156205699829586 0  0.8585349462365591 -0.625 0  -0.2688268348649726 0.5439331383603209 0  0.8242100426758139 -0.4436043596336612 0  0.5833756314287952 0.4479378157143976 0  0.8690476190476191 -0.125 0  -0.125 0.8690476190476191 0  -0.8692745600729823 0.125 0  0.8696725120759167 0.125 0  -0.625 0.8711516477451908 0  0.2339522463269718 0.3879558377955778 0  0.2453709502295031 0.5655822922838026 0  0.1730610651637797 0.02021709580868947 0  0.3245402594056757 -0.5644672020485209 0  -0.7291666666666666 -0.4816595441595442 0  -1 -0.375 0  -0.5811140848639904 -0.2127276307675001 0  0.673332592838314 0.2158348143233718 0  0.375 1 0  -0.5714768890989919 0.2985103444040069 0  -1 -0.125 0  -0.8453692574786325 -0.1875 0  -0.3144549134065865 -0.02408675326008025 0  -0.2898414972096258 -0.3336092734780093 0  -0.1075052092206287 -0.4224330421314983 0  -0.05043970703604117 -0.1652278959397459 0  0.6459672950297897 -0.1113415301525317 0  0.4645210271029513 0.6398480556579343 0  0.3512863754411909 0.0937979496253573 0  -0.6063160985568274 0.03891469652249891 0  -0.3428819444444445 0.8690476190476191 0  0.625 1 0  -0.1602164796159982 0.02697860906625157 0  0.04648110064133829 -0.4808416424239687 0  1 0.875 0  -0.3836102479201657 0.6484936449177356 0  -0.3776011723096096 0.263078478984336 0  -0.6024978259969829 -0.3949628096211138 0  0.125 1 0  0.2010781308272777 0.8456221018461906 0  0.2822509696388829 -0.845902544691141 0  -0.3285533674953515 -0.6289773550938936 0  0.3461306793221754 0.278777492464833 0  0.4737475672408696 -0.8508448959534423 0  0.2384632828836344 -0.7029523187242811 0  -0.004777287059791593 0.3759269695907358 0  -0.8499735021850066 -0.3912320205328522 0  0.1222536293721587 0.2963971539625205 0  -0.3769456520999688 -0.203572526805711 0  -0.2749617205755651 -0.8464290792698902 0  0.004805888512766143 -0.747174355248311 0  -0.125 -1 0  -0.06001061822252458 -0.8724007765244854 0  0.875 0.4375 0  0.854421179608893 0.271342359217786 0  0.875 1 0  -0.1499861095763589 0.2358309656934888 0  0.3381943639137225 0.8663061796405532 0  -0.7853090110442228 0.4998412775277108 0  0.7398165998560814 -0.5535192694951373 0  0.1580042122341573 -0.3100246140259917 0  -0.7291666666666667 -0.7142857142857142 0  -0.375 -1 0  0.6483368386154684 0.8514905990110488 0  -0.1295370103291928 -0.2826118305021242 0  0.07458201853700455 0.1123894386563915 0  0.6146465857036327 -0.3161203659316075 0  0.5551898493894731 -0.740296118159085 0  0.375 -1 0  0.482702798370208 -0.084133350091034 0  0.87890625 0.68359375 0  -0.05917195534525846 0.4971092425697621 0  0.1260710309213975 0.6343750312956699 0  0.8690476190476191 -0.3077066815262848 0  -0.2912010232560567 0.3668168386732139 0  -0.875 1 0  -1 0.875 0  1 -0.875 0  0.875 -1 0  -0.8689564281364567 -0.006189266075306407 0  -0.7449425635110547 0.08458938160051771 0  -0.7150266761936593 -0.1739444581417552 0  -0.5260034831318311 -0.711099823962112 0  -0.4724626808827322 -0.871722230709409 0  0.4734436795977052 0.377714794132168 0  -0.875 -1 0  -1 -0.875 0  0.6927189078571988 0.5156567235715964 0  -0.3742497615796874 -0.4296005251260107 0  -0.1969436423297711 -0.6387157229772615 0  -0.6179496409766825 -0.08933356056510935 0  -0.424405057115988 0.04452428810878029 0  -0.08479048335844169 0.1279607007132633 0  0.003830300099055113 0.8712085230656206 0  0.8748778838820267 -1.379218479898026e-05 0  -0.375 1 0  -0.625 1 0  1 0.125 0  -0.125 1 0  1 -0.375 0  1 -0.125 0  1 -0.625 0  0.625 -1 0  0.125 -1 0  -0.625 -1 0  -1 -0.625 0  -1 0.125 0  -1 0.375 0  -1 0.625 0  1 0.375 0  1 0.625 0  0.6325660748712082 0.3335187599557389 0  -0.06420945895056573 0.7549874027425891 0  -0.8769015540914771 0.2478802253893416 0  0.871875 0.871875 0  -0.6868091492840067 0.3270978624973681 0  -0.5363597469565949 0.412994850055505 0  -0.6803734992638302 0.5574295000651103 0  -0.7076253581162534 -0.8803439094224437 0  -0.8778089002295137 -0.5106896447504627 0  -0.3860184984222981 0.530566778071246 0  0.6109900617121508 0.1128453077697081 0  0.3896945134930274 -0.1915382873255086 0  0.7605656944697778 -0.06822134873122943 0  0.3576151269893478 0.5948388411612135 0  -0.5689902680792265 -0.5143596830118065 0  0.6262446286847614 -0.5735657901943212 0  0.2030558252325225 -0.5625263842513452 0  0.6123273142928579 0.7407533260723429 0  0.4016460890123554 -0.3042863223111857 0  -0.59039693199147 0.7578418819188018 0  0.7276932493917544 -0.3705808024528924 0  0.5222536818742854 -0.4713886230400014 0  -0.5101986527137737 0.8848365765607674 0  0.510560172809238 0.5356013299918891 0  -0.3603569195756083 0.75823710606415 0  0.1967279277813232 0.728226870058472 0  -0.6086880986371127 0.1545624071548516 0  -0.38105366729386 0.1511189987807864 0  -0.2944659463671584 -0.7359061804869591 0  0.5060729154966499 -0.3475227845833823 0  -0.09281616240412746 -0.06197858250969457 0  0.7649739583333334 0.6673177083333334 0  0.7628906249999999 0.890234375 0  -0.2666864184909611 0.2585504071132311 0  0.3635064892129658 0.3878003602709461 0  -0.2339409722222222 0.8901937905844155 0  -0.1718792125974916 -0.8957733325456778 0  0.1001768566329531 0.4023510017391879 0  0.3120260172693757 -0.4540546875576884 0  0.7804062804433681 0.1896628610854537 0  0.4087715451998049 0.187961780041608 0  -0.1584963477271457 0.5451611892421655 0  -0.8926817849258324 0.463022006336401 0  0.2338091473445219 -0.07576267331277289 0  0.08171112182813692 -0.2349087687359925 0  0.04635385178956847 -0.1044635073718474 0  -0.4377391632114205 -0.6448874471423088 0  -0.1907678351227189 0.6480215912813945 0  0.300605946475244 0.4741444604171038 0  -0.2145033720757486 -0.06751709909419711 0  0.6069191921170397 -0.005492331448357812 0  0.0214718770761248 0.6032397936031719 0  0.5476675683364878 0.8992752415326501 0  0.4387475014316537 0.9093708953002239 0  -0.4932997685306436 -0.4381009159993523 0  0.2515197695339056 -0.1791673369138964 0  -0.7291666666666667 -0.6088789682539681 0  -0.9166666666666667 -0.6875 0  0.620579540363709 -0.2122431523583302 0  -0.484950136419973 0.6719440339397442 0  0.2857044415400258 0.0137589173127316 0  -0.8945708364098356 -0.288306105327986 0  0.4043102720140535 0.7842914560451557 0  0.04123256238752064 -0.9026968245801402 0  0.2003676884403109 -0.9091888601740487 0  0.1068775558538842 -0.7373377130403223 0  -0.4804566783514427 -0.1763307203045643 0  0.108286342087769 -0.3993789328997278 0  -0.191883080105361 -0.3640821726430649 0  -0.07025064492006244 0.2984876656890053 0  -0.7039324641409584 0.788312126296613 0  -0.7311286585775438 0.8932502354831682 0  0.5171409396884947 0.1503852691889257 0  0.4229392823658633 -0.003216522184234835 0  -0.5621736087218259 -0.919558629836806 0  -0.626474064879544 -0.7266572613636506 0  0.2446828746617422 0.2867616783302419 0  0.1759429608742923 0.4776611759306416 0  -0.3468240303741654 -0.5260416435617549 0  -0.7465808808425306 0.4069574477998361 0  -0.7819962170660292 0.2802441065650652 0  -0.3742623214119594 -0.8547800509641984 0  0.1014498009713561 0.8506721983266377 0  0.4285217620918213 -0.5230190595570253 0  0.4091738370487775 -0.6256346204225141 0  0.78125 0.46875 0  0.90625 0.53125 0  -0.4791801348852565 0.2553992655702126 0  0.7843318610782772 -0.7086046956885941 0  0.8909728264971901 -0.7355183796514634 0  0.7041908166528879 -0.7830649143180282 0  0.7311821352
[...]
<PointData  Vectors="f_22"> 
<DataArray  type="Float64"  Name="f_22"  NumberOfComponents="3" format="ascii">-1.6061565654065538e-02 -1.4794835583940985e-02 0.0000000000000000e+00  -1.6061565654065538e-02 -1.4794835583940985e-02 0.0000000000000000e+00  -1.6061565654065538e-02 -1.4794835583940985e-02 0.0000000000000000e+00  -1.6061565654065538e-02 -1.4794835583940985e-02 0.0000000000000000e+00  -1.5826552986197527e-02 -2.2767293345625578e-02 0.0000000000000000e+00  -2.3647716078140792e-02 -1.4554161887006076e-02 0.0000000000000000e+00  -1.5826552986197527e-02 -2.2767293345625578e-02 0.0000000000000000e+00  -2.3647716078140792e-02 -1.4554161887006076e-02 0.0000000000000000e+00  -2.3886483620836174e-02 -2.3011256830344010e-02 0.0000000000000000e+00  1.5766816955060518e-03 -1.4658484798768542e-02 0.0000000000000000e+00  -1.5927625535480175e-02 2.5982935312784446e-03 0.0000000000000000e+00  -1.5927625535480175e-02 2.5982935312784446e-03 0.0000000000000000e+00  -4.1298357440936150e-02 -1.4654898434244917e-02 0.0000000000000000e+00  1.5766816955060518e-03 -1.4658484798768542e-02 0.0000000000000000e+00  -1.5926802509800733e-02 -4.0172664062827650e-02 0.0000000000000000e+00  -4.1298357440936150e-02 -1.4654898434244917e-02 0.0000000000000000e+00  -1.5926802509800733e-02 -4.0172664062827650e-02 0.0000000000000000e+00  -8.2754128239923469e-05 -4.0410067115353832e-02 0.0000000000000000e+00  -4.1483395110596510e-02 8.8620749018830474e-04 0.0000000000000000e+00  1.4916336754413439e-03 -6.6502658862646500e-03 0.0000000000000000e+00  -3.7861307281080996e-02 -4.0242919653549286e-02 0.0000000000000000e+00  -1.9080132907849261e-02 2.3636043606509788e-03 0.0000000000000000e+00  -4.1223807215308883e-02 -2.7697847094466682e-02 0.0000000000000000e+00  1.3113932387278380e-03 2.4123746519700705e-03 0.0000000000000000e+00  -3.8276900888710420e-02 -3.7077113440422166e-02 0.0000000000000000e+00  -7.3648470124743409e-03 -3.1522279822504662e-02 0.0000000000000000e+00  -3.6021139267559441e-02 7.5676321435288985e-04 0.0000000000000000e+00  -3.2770414412878812e-02 -6.4672301444827045e-03 0.0000000000000000e+00  1.3740170082537566e-03 -2.9562169188992873e-02 0.0000000000000000e+00  4.6885288547231300e-04 -3.4690232932088838e-02 0.0000000000000000e+00  -3.5911522931328613e-02 1.6010247282683529e-03 0.0000000000000000e+00  -1.9083941360136421e-02 -3.9679433087692687e-02 0.0000000000000000e+00  -4.6193852466514859e-03 4.8693217638040581e-05 0.0000000000000000e+00  -3.3401346791066572e-02 -3.8920322026334747e-02 0.0000000000000000e+00  -3.7870355042869705e-03 -2.4327211752405205e-02 0.0000000000000000e+00  -3.2986812742194685e-02 -5.5556972773999078e-03 0.0000000000000000e+00  -9.7259615943516282e-04 -4.0155782186243653e-02 0.0000000000000000e+00  -1.2033656001653148e-02 -8.2652531280895288e-03 0.0000000000000000e+00  -3.5180942723457669e-02 -3.5614724069457288e-02 0.0000000000000000e+00  -4.1201825400399593e-02 -3.1045829863500587e-02 0.0000000000000000e+00  -2.3087856775520963e-03 -1.2992917137939585e-02 0.0000000000000000e+00  -2.6556982921641058e-02 -3.3158463561196685e-02 0.0000000000000000e+00  -1.6015372227921779e-02 -8.5937507211722647e-04 0.0000000000000000e+00  -2.0342205151364242e-03 -1.4748286837473822e-02 0.0000000000000000e+00  -3.2324569361681696e-02 -1.4746238011940150e-02 0.0000000000000000e+00  -1.6016242497270013e-02 -3.1071555890756664e-02 0.0000000000000000e+00  -2.0571594846486210e-02 -4.6684120270330635e-04 0.0000000000000000e+00  -3.2550035214552395e-03 1.8248052332481236e-03 0.0000000000000000e+00  -4.1517485466000675e-02 -4.0543129001233684e-02 0.0000000000000000e+00  -1.5853404746323740e-02 -3.6733158905351282e-02 0.0000000000000000e+00  -1.5854308335079687e-02 -6.4747050780559218e-03 0.0000000000000000e+00  -1.6015372227921779e-02 -8.5937507211722647e-04 0.0000000000000000e+00  -1.6016242497270013e-02 -3.1071555890756664e-02 0.0000000000000000e+00  -7.3752969512727315e-03 -1.4583913894841269e-02 0.0000000000000000e+00  -3.7702193939470705e-02 -1.4580488594014302e-02 0.0000000000000000e+00  -7.3752969512727315e-03 -1.4583913894841269e-02 0.0000000000000000e+00  -1.5854308335079687e-02 -6.4747050780559218e-03 0.0000000000000000e+00  -2.0342205151364242e-03 -1.4748286837473822e-02 0.0000000000000000e+00  -3.2324569361681696e-02 -1.4746238011940150e-02 0.0000000000000000e+00  -1.5853404746323740e-02 -3.6733158905351282e-02 0.0000000000000000e+00  -3.7702193939470705e-02 -1.4580488594014302e-02 0.0000000000000000e+00  -2.3907044029024354e-03 3.7190685349124233e-04 0.0000000000000000e+00  -3.1743160108381407e-02 -2.7082448441602274e-02 0.0000000000000000e+00  -4.1269313114584698e-02 -1.2270587586616685e-02 0.0000000000000000e+00  -4.1542700458259647e-02 2.2001617161861919e-03 0.0000000000000000e+00  -3.3290693003286333e-02 2.5461091953786446e-03 0.0000000000000000e+00  -3.0658464707479242e-02 2.2520052320482713e-03 0.0000000000000000e+00  8.8570667175159542e-04 -3.6248754152148385e-02 0.0000000000000000e+00  -9.3894090620436077e-03 -3.9841953634115343e-02 0.0000000000000000e+00  -3.6766037617475343e-02 -2.2836853286258414e-02 0.0000000000000000e+00  -1.3524964892708461e-02 -3.2230575928346702e-02 0.0000000000000000e+00  5.3114615854464619e-04 -3.4728012126923502e-02 0.0000000000000000e+00  -3.7998619886253852e-02 -1.7054677228602957e-02 0.0000000000000000e+00  -4.0909751478189545e-02 -4.5867099087840415e-03 0.0000000000000000e+00  1.3364426133619894e-03 -4.6480610465301844e-03 0.0000000000000000e+00  -5.3331564306937675e-03 2.7688659233995809e-03 0.0000000000000000e+00  1.7573748013481366e-03 1.5019384529307805e-03 0.0000000000000000e+00  -4.0200329339558770e-02 -2.7325152518951790e-02 0.0000000000000000e+00  -3.0543572485882502e-02 -2.9281897511326670e-02 0.0000000000000000e+00  -2.9689854080396948e-02 -4.0111190410514710e-02 0.0000000000000000e+00  -5.8816282133542916e-03 -3.0657420688073259e-02 0.0000000000000000e+00  -5.1292256774331940e-03 -3.9205115472908357e-03 0.0000000000000000e+00  1.8650945084906598e-03 -1.7602651890137853e-02 0.0000000000000000e+00  -2.7081042642250957e-02 -4.0061015110913360e-02 0.0000000000000000e+00  -6.0397156375503244e-03 -3.8243780023287079e-02 0.0000000000000000e+00  1.9301748936889269e-03 -3.9881154313744831e-02 0.0000000000000000e+00  -7.0804039841131337e-03 -3.6950441302540972e-02 0.0000000000000000e+00  -4.9064760683742072e-03 -2.7052212938578738e-02 0.0000000000000000e+00  -3.9688674485981318e-02 2.9139291257484728e-03 0.0000000000000000e+00  -3.8147962857817880e-02 -5.8509635601801686e-03 0.0000000000000000e+00  -2.8331697073599615e-02 -3.6593498640261927e-03 0.0000000000000000e+00  1.4434068846860537e-03 -2.4215679121113939e-02 0.0000000000000000e+00  -4.0448424864108018e-02 -5.4566133041522719e-03 0.0000000000000000e+00  6.2436284815502510e-04 -2.6380838914401891e-02 0.0000000000000000e+00  -4.1744639511281809e-02 -3.8473177181897737e-02 0.0000000000000000e+00  -1.5151371300159843e-02 -2.3438100620945649e-02 0.0000000000000000e+00  -2.4715510333179157e-02 -1.4278206048521373e-02 0.0000000000000000e+00  -3.1566326528538677e-02 -6.3490808146729012e-03 0.0000000000000000e+00  -3.1593779639566472e-02 -2.3447892887043055e-02 0.0000000000000000e+00  -2.4655369450386957e-02 2.5387413525764214e-03 0.0000000000000000e+00  -4.1425649313311733e-02 -3.6269943004317413e-02 0.0000000000000000e+00  -4.0102508685308014e-02 -3.6690908113387447e-02 0.0000000000000000e+00  -2.5229189513193750e-02 -3.3464834242405081e-02 0.0000000000000000e+00  2.0348497451509982e-03 -3.9063528209068131e-02 0.0000000000000000e+00  1.2304964095821568e-03 -1.0194861907621791e-04 0.0000000000000000e+00  -1.5008951512254388e-03 -1.4616655727369986e-02 0.0000000000000000e+00  -9.6949829377139096e-03 2.8892222872257648e-03 0.0000000000000000e+00  -3.6367515941090972e-02 -3.4962233913881563e-02 0.0000000000000000e+00  -1.5885650043564636e-02 -4.0075611387710784e-02 0.0000000000000000e+00  -3.9370405597846554e-02 3.0805114728459032e-03 0.0000000000000000e+00  -1.5151379372796935e-02 -1.4561629776775458e-02 0.0000000000000000e+00  -1.1138873304822392e-02 -5.1204747581182607e-03 0.0000000000000000e+00  -2.2219734743543298e-02 -3.2713722977676580e-03 0.0000000000000000e+00  -3.3524335758472225e-03 -4.5298331644217944e-03 0.0000000000000000e+00  -6.4909305594437205e-05 -1.5646694564849638e-02 0.0000000000000000e+00  -1.2730726398305896e-02 -1.9579558751391505e-02 0.0000000000000000e+00  -1.6120922236851555e-02 -3.6045175572396483e-02 0.0000000000000000e+00  -3.7691242383821634e-02 -4.0583977294882445e-02 0.0000000000000000e+00  -2.9911775020357211e-02 -3.9801243130007172e-02 0.0000000000000000e+00  -2.6323728457003509e-02 2.8121259597738897e-03 0.0000000000000000e+00  -2.4716258631924701e-02 -1.8099458438933383e-03 0.0000000000000000e+00  -1.5972096458241897e-02 -3.7009642632068504e-02 0.0000000000000000e+00  -2.5672106001784767e-02 -1.2172411582502107e-02 0.0000000000000000e+00  1.3095494586952547e-03 -2.5969646507144319e-02 0.0000000000000000e+00  -2.4543282499736072e-02 -1.4780153308805161e-02 0.0000000000000000e+00  -3.7101989255465193e-02 -1.8733796555563622e-04 0.0000000000000000e+00  -3.8244847343856830e-02 -4.7380866561199238e-04 0.0000000000000000e+00  -9.3945426200992921e-04 2.6958831064664459e-03 0.0000000000000000e+00  -1.5833309927734674e-02 -3.0653804221319688e-02 0.0000000000000000e+00  -2.6347272049533351e-02 -3.4676589164150159e-02 0.0000000000000000e+00  -6.2865733105317801e-03 -3.7860877068259489e-02 0.0000000000000000e+00  1.3039190104908106e-03 -2.5997148753421398e-03 0.0000000000000000e+00  -3.8935628192181687e-02 -3.9731962530649027e-02 0.0000000000000000e+00  -6.5954831439014386e-03 -4.0378169101530491e-02 0.0000000000000000e+00  -1.7708138161580969e-04 -3.6263143736558701e-02 0.0000000000000000e+00  -4.1215198650372230e-02 -2.2628318779276079e-02 0.0000000000000000e+00  -9.8281542988598787e-04 -5.4452762688624633e-03 0.0000000000000000e+00  -3.9486719364747971e-02 -3.0707256182339021e-02 0.0000000000000000e+00  -1.0305364390495283e-02 -6.2887546264298565e-04 0.0000000000000000e+00  -6.4339134145173305e-03 -5.1575259477647586e-03 0.0000000000000000e+00  -1.7405774814215620e-03 -2.3139852351033999e-02 0.0000000000000000e+00  -1.5833613539479072e-02 -1.4277705011861447e-02 0.0000000000000000e+00  -7.7951576212639696e-03 -1.8709075349460636e-02 0.0000000000000000e+00  -4.1669759321138693e-02 -2.3192189650118010e-02 0.0000000000000000e+00  -3.8541640781697688e-02 -2.4513126847647074e-02 0.0000000000000000e+00  -1.6048639872254064e-02 -2.3268310535253470e-02 0.0000000000000000e+00  -3.7260699864000650e-02 -1.2796610569560512e-02 0.0000000000000000e+00  -2.5021197760666244e-02 -3.9455983469587438e-02 0.0000000000000000e+00  -4.1223029768768134e-02 -2.1226756387452287e-03 0.0000000000000000e+00  1.9952408705466956e-03 -3.1455406907465587e-02 0.0000000000000000e+00  -4.3502217574667235e-03 -3.2609545827929229e-02 0.0000000000000000e+00  -7.9721678349279322e-04 -1.3688564780380021e-04 0.0000000000000000e+00  -1.5886648140153763e-02 -5.4987143639528282e-04 0.0000000000000000e+00  -2.6092589238940408e-02 -3.6130749047058007e-02 0.0000000000000000e+00  -5.8009111400801703e-03 -1.4200250308954984e-02 0.0000000000000000e+00  -3.1055242034180190e-02 -2.7861318016824569e-02 0.0000000000000000e+00  -3.9459190904477482e-03 -3.7215388675366681e-02 0.0000000000000000e+00  -1.4757895623819482e-03 -3.9060356416521551e-02 0.0000000000000000e+00  -1.5885650043564636e-02 -4.0075611387710784e-02 0.0000000000000000e+00  -1.8029965747171202e-02 -4.0332427997755264e-02 0.0000000000000000e+00  -3.5785425556125947e-02 -2.2996054627075317e-02 0.0000000000000000e+00  -4.1308101476720746e-02 -1.8870348505598353e-02 0.0000000000000000e+00  -3.7809099549232103e-02 -3.0826934888692464e-02 0.0000000000000000e+00  -4.3408502266000740e-03 -2.3436754309301824e-02 0.0000000000000000e+00  -4.0989422461815160e-02 -4.3163506681562613e-03 0.0000000000000000e+00  -1.6048580900713528e-02 -6.9303086108100341e-03 0.0000000000000000e+00  -2.4543282499736072e-02 -1.4780153308805161e-02 0.0000000000000000e+00  -8.1621350107208054e-03 -1.4781816964221369e-02 0.0000000000000000e+00  -1.6048639872254064e-02 -2.3268310535253470e-02 0.0000000000000000e+00  -2.3247230580649574e-02 -6.3531320548611886e-03 0.0000000000000000e+00  -2.9178539780814930e-02 -4.6064645284026067e-04 0.0000000000000000e+00  -1.2046155649395247e-02 4.7597321204531011e-04 0.0000000000000000e+00  -6.7401565110655141e-04 2.7606394310832607e-03 0.0000000000000000e+00  -7.9031189172951224e-03 2.1294021814624881e-03 0.0000000000000000e+00  -4.1302059051998644e-02 -4.0537878606085008e-02 0.0000000000000000e+00  -1.6048580900713528e-02 -6.9303086108100341e-03 0.0000000000000000e+00  -8.1621350107208054e-03 -1.4781816964221369e-02 0.0000000000000000e+00  -4.1170345713541903e-02 -3.4123019227578842e-02 0.0000000000000000e+00  8.1437321083473760e-05 -7.4269002271838648e-04 0.0000000000000000e+00  1.1959405131256055e-03 -9.7491357046346778e-03 0.0000000000000000e+00  -1.7679067331250322e-02 2.6394473619923186e-03 0.0000000000000000e+00  -2.6750263067313124e-02 1.0119579927926211e-03 0.0000000000000000e+00  -3.1940436895528709e-02 -1.7219226627786795e-02 0.0000000000000000e+00  -2.4592156487587148e-02 -2.3040426923958142e-02 0.0000000000000000e+00  -2.3659928896050064e-02 -2.3067583073208886e-02 0.0000000000000000e+00  -1.5886648140153763e-02 -5.4987143639528282e-04 0.0000000000000000e+00  -1.5971999048991058e-02 2.4891037892558355e-03 0.0000000000000000e+00  -3.1566705448403350e-02 -1.4560604617831560e-02 0.0000000000000000e+00  -1.5833613539479072e-02 -1.4277705011861447e-02 0.0000000000000000e+00  -1.5008951512254388e-03 -1.4616655727369986e-02 0.0000000000000000e+00  -1.5151379372796935e-02 -1.4561629776775458e-02 0.0000000000000000e+00  1.3872404579759316e-03 -1.4703873657929318e-02 0.0000000000000000e+00  -1.5972096458241897e-02 -3.7009642632068504e-02 0.0000000000000000e+00  -1.5833309927734674e-02 -3.0653804221319688e-02 0.0000000000000000e+00  -1.5971999048991058e-02 2.4891037892558355e-03 0.0000000000000000e+00  1.3872404579759316e-03 -1.4703873657929318e-02 0.0000000000000000e+00  -3.1566705448403350e-02 -1.4560604617831560e-02 0.0000000000000000e+00  -4.1120340330157219e-02 -1.4613238673024984e-02 0.0000000000000000e+00  -3.8208264100467702e-02 -1.4701856077995264e-02 0.0000000000000000e+00  -4.1120340330157219e-02 -1.4613238673024984e-02 0.0000000000000000e+00  -3.8208264100467702e-02 -1.4701856077995264e-02 0.0000000000000000e+00  -4.0447511862366642e-02 -3.6743916199417977e-02 0.0000000000000000e+00  -3.1863216573361039e-02 -1.8435405162547016e-02 0.0000000000000000e+00  -3.7602389309561023e-02 -6.7821134009156151e-03 0.0000000000000000e+00  -2.4764875870229592e-02 -2.3487478273147521e-02 0.0000000000000000e+00  -4.0133133107010506e-02 1.4256013562948197e-03 0.0000000000000000e+00  -4.1449285268292828e-02 3.0343964066176644e-03 0.0000000000000000e+00  -4.0146321686885221e-02 1.5589462477374307e-03 0.0000000000000000e+00  -8.4642402043245361e-03 5.8345692800549612e-04 0.0000000000000000e+00  1.6467432255147332e-03 -7.0282147582671406e-03 0.0000000000000000e+00  -4.0699777760035340e-02 -1.0843497985186193e-04 0.0000000000000000e+00  -3.0975847042271541e-02 -3.7475289326383589e-02 0.0000000000000000e+00  -1.0942472785942462e-02 -4.0267018378502543e-02 0.0000000000000000e+00  -1.9029597720428112e-02 -3.0284217103786926e-02 0.0000000000000000e+00  -3.9285497408862932e-02 -3.9920128029410321e-02 0.0000000000000000e+00  1.6107154887804824e-03 2.8576587619016003e-03 0.0000000000000000e+00  1.9953467705539959e-03 -3.6800185121993206e-02 0.0000000000000000e+00  2.0143720599304703e-03 -3.4758238332475523e-02 0.0000000000000000e+00  -3.2867802954398603e-02 -3.7531385419265810e-02 0.0000000000000000e+00  -4.5580926512390207e-03 -4.0341538649980212e-02 0.0000000000000000e+00  -3.1703776175892130e-02 2.9429872845099995e-03 0.0000000000000000e+00  -1.6193962240100353e-03 -3.2084774710779917e-02 0.0000000000000000e+00  1.2422869941318181e-03 -3.9704819978884705e-02 0.0000000000000000e+00  -2.3702490304627448e-02 2.7532053363217403e-03 0.0000000000000000e+00  -4.0833538773012101e-02 -4.0126470873420000e-02 0.0000000000000000e+00  -3.1635808032811415e-02 -1.0749502436766421e-03 0.0000000000000000e+00  -3.3441105036915358e-02 -3.4512962878176213e-02 0.0000000000000000e+00  -3.3261419643211221e-02 2.8254461522115863e-03 0.0000000000000000e+00  -3.3145106824610471e-02 -3.7917732688403825e-04 0.0000000000000000e+00  -1.4400551874337497e-03 -4.1921048306627351e-03 0.0000000000000000e+00  -2.5574259198648534e-03 -3.9976810376835856e-02 0.0000000000000000e+00  -1.9665307694086236e-02 -1.6690798129108647e-02 0.0000000000000000e+00  -3.6544341439226247e-02 -3.0242419655024669e-02 0.0000000000000000e+00  -2.3521129642110849e-02 -3.0359278213846218e-02 0.0000000000000000e+00  -3.8112355758769333e-02 -5.6541387730310033e-03 0.0000000000000000e+00  -4.1435575389713951e-02 -4.0046618394918972e-02 0.0000000000000000e+00  -2.3293230511190307e-02 -7.3827321080863068e-03 0.0000000000000000e+00  -9.1898749568287644e-03 -1.1227146499536491e-02 0.0000000000000000e+00  -4.1539532182706784e-02 -2.9384265056597941e-02 0.0000000000000000e+00  8.6566384903087297e-04 -3.8767435836082907e-02 0.0000000000000000e+00  -3.5094276461219306e-02 -2.9194713497971893e-02 0.0000000000000000e+00  -3.5132289504915371e-02 -4.0538572256896936e-02 0.0000000000000000e+00  -4.0452372497332141e-02 -1.2137715721727298e-02 0.0000000000000000e+00  -4.1557305820733331e-02 -7.7498975224757011e-03 0.0000000000000000e+00  -1.8682009377479096e-02 -3.6233796205876287e-02 0.0000000000000000e+00  -8.4001559165429920e-03 -2.8261570073808074e-02 0.0000000000000000e+00  -1.6758751556969202e-02 -2.6060025874787743e-02 0.0000000000000000e+00  1.0073858484468453e-03 1.3007049286445365e-03 0.0000000000000000e+00  -3.7149355288157444e-02 -1.0034963633211037e-02 0.0000000000000000e+00  -4.1635420317583195e-02 -3.8609412366998844e-02 0.0000000000000000e+00  -1.9277761805321036e-02 -8.7591421523686621e-03 0.0000000000000000e+00  -2.3373741159165257e-02 -3.7573440366108254e-02 0.0000000000000000e+00  -3.8900398816342989e-02 -2.4308761411091787e-02 0.0000000000000000e+00  -2.2856222331018902e-02 -3.9368511262719404e-02 0.0000000000000000e+00  -2.2131840858379388e-02 -4.0573242482771520e-02 0.0000000000000000e+00  3.0052312651648443e-04 2.3886516420489586e-03 0.0000000000000000e+00  -1.1768583261244981e-02 -3.6901163454331219e-02 0.0000000000000000e+00  1.5260159407564779e-03 -1.2878636292729868e-04 0.0000000000000000e+00  3.2967884230882753e-05 -9.3801827682573734e-03 0.0000000000000000e+00  -9.5964123176608841e-03 -3.7017607357453255e-02 0.0000000000000000e+00  -3.6093198506479331e-02 2.4712091552960168e-03 0.0000000000000000e+00  -2.4776692909101353e-02 -3.8138066574335612e-02 0.0000000000000000e+00  -5.3573944487910700e-03 -7.9163035174621768e-03 0.0000000000000000e+00  -3.0297446096893856e-02 -4.0467046173635328e-02 0.0000000000000000e+00  -9.5546154696605160e-03 -2.5503248475484450e-02 0.0000000000000000e+00  -9.9426316088701509e-03 -3.4593240028082832e-02 0.0000000000000000e+00  -1.3442792973916895e-03 -2.9622643107080376e-02 0.0000000000000000e+00  -1.1981176587907739e-02 2.2348523885016309e-03 0.0000000000000000e+00  -7.0526093829665845e-04 -2.9809254799822341e-02 0.0000000000000000e+00  -2.0663178049914882e-03 -1.0146594084858898e-02 0.0000000000000000e+00  -3.9503892287105727e-02 -1.8175417055859233e-02 0.0000000000000000e+00  -2.9961121784167193e-02 8.1675394560324428e-04 0.0000000000000000e+00  -2.3223877851443399e-02 -1.2046952274249201e-04 0.0000000000000000e+00  -3.3147552514682842e-02 -3.9957620975357655e-02 0.0000000000000000e+00  -2.3593484443201567e-02 -4.0552681205136422e-02 0.0000000000000000e+00  -1.0766692251296391e-02 2.9337629171328101e-03 0.0000000000000000e+00  -1.2068735818902441e-03 2.3977836353019522e-03 0.0000000000000000e+00  -3.9199780427771391e-02 