<?xml version="1.0"?>
<VTKFile type="UnstructuredGrid"  version="0.1"  >
<UnstructuredGrid>
<Piece  NumberOfPoints="1331" NumberOfCells="6000">
<Points>
<DataArray  type="Float64"  NumberOfComponents="3"  format="ascii">-3.141592653589793 -3.141592653589793 -3.141592653589793  -2.513274122871834 -3.141592653589793 -3.141592653589793  -1.884955592153876 -3.141592653589793 -3.141592653589793  -1.256637061435917 -3.141592653589793 -3.141592653589793  -0.6283185307179586 -3.141592653589793 -3.141592653589793  0 -3.141592653589793 -3.141592653589793  0.6283185307179586 -3.141592653589793 -3.141592653589793  1.256637061435917 -3.141592653589793 -3.141592653589793  1.884955592153876 -3.141592653589793 -3.141592653589793  2.513274122871834 -3.141592653589793 -3.141592653589793  3.141592653589793 -3.141592653589793 -3.141592653589793  -3.141592653589793 -2.513274122871834 -3.141592653589793  -2.513274122871834 -2.513274122871834 -3.141592653589793  -1.884955592153876 -2.513274122871834 -3.141592653589793  -1.256637061435917 -2.513274122871834 -3.141592653589793  -0.6283185307179586 -2.513274122871834 -3.141592653589793  0 -2.513274122871834 -3.141592653589793  0.6283185307179586 -2.513274122871834 -3.141592653589793  1.256637061435917 -2.513274122871834 -3.141592653589793  1.884955592153876 -2.513274122871834 -3.141592653589793  2.513274122871834 -2.513274122871834 -3.141592653589793  3.141592653589793 -2.513274122871834 -3.141592653589793  -3.141592653589793 -1.884955592153876 -3.141592653589793  -2.513274122871834 -1.884955592153876 -3.141592653589793  -1.884955592153876 -1.884955592153876 -3.141592653589793  -1.256637061435917 -1.884955592153876 -3.141592653589793  -0.6283185307179586 -1.884955592153876 -3.141592653589793  0 -1.884955592153876 -3.141592653589793  0.6283185307179586 -1.884955592153876 -3.141592653589793  1.256637061435917 -1.884955592153876 -3.141592653589793  1.884955592153876 -1.884955592153876 -3.141592653589793  2.513274122871834 -1.884955592153876 -3.141592653589793  3.141592653589793 -1.884955592153876 -3.141592653589793  -3.141592653589793 -1.256637061435917 -3.141592653589793  -2.513274122871834 -1.256637061435917 -3.141592653589793  -1.884955592153876 -1.256637061435917 -3.141592653589793  -1.256637061435917 -1.256637061435917 -3.141592653589793  -0.6283185307179586 -1.256637061435917 -3.141592653589793  0 -1.256637061435917 -3.141592653589793  0.6283185307179586 -1.256637061435917 -3.141592653589793  1.256637061435917 -1.256637061435917 -3.141592653589793  1.884955592153876 -1.256637061435917 -3.141592653589793  2.513274122871834 -1.256637061435917 -3.141592653589793  3.141592653589793 -1.256637061435917 -3.141592653589793  -3.141592653589793 -0.6283185307179586 -3.141592653589793  -2.513274122871834 -0.6283185307179586 -3.141592653589793  -1.884955592153876 -0.6283185307179586 -3.141592653589793  -1.256637061435917 -0.6283185307179586 -3.141592653589793  -0.6283185307179586 -0.6283185307179586 -3.141592653589793  0 -0.6283185307179586 -3.141592653589793  0.6283185307179586 -0.6283185307179586 -3.141592653589793  1.256637061435917 -0.6283185307179586 -3.141592653589793  1.884955592153876 -0.6283185307179586 -3.141592653589793  2.513274122871834 -0.6283185307179586 -3.141592653589793  3.141592653589793 -0.6283185307179586 -3.141592653589793  -3.141592653589793 0 -3.141592653589793  -2.513274122871834 0 -3.141592653589793  -1.884955592153876 0 -3.141592653589793  -1.256637061435917 0 -3.141592653589793  -0.6283185307179586 0 -3.141592653589793  0 0 -3.141592653589793  0.6283185307179586 0 -3.141592653589793  1.256637061435917 0 -3.141592653589793  1.884955592153876 0 -3.141592653589793  2.513274122871834 0 -3.141592653589793  3.141592653589793 0 -3.141592653589793  -3.141592653589793 0.6283185307179586 -3.141592653589793  -2.513274122871834 0.6283185307179586 -3.141592653589793  -1.884955592153876 0.6283185307179586 -3.141592653589793  -1.256637061435917 0.6283185307179586 -3.141592653589793  -0.6283185307179586 0.6283185307179586 -3.141592653589793  0 0.6283185307179586 -3.141592653589793  0.6283185307179586 0.6283185307179586 -3.141592653589793  1.256637061435917 0.6283185307179586 -3.141592653589793  1.884955592153876 0.6283185307179586 -3.141592653589793  2.513274122871834 0.6283185307179586 -3.141592653589793  3.141592653589793 0.6283185307179586 -3.141592653589793  -3.141592653589793 1.256637061435917 -3.141592653589793  -2.513274122871834 1.256637061435917 -3.141592653589793  -1.884955592153876 1.256637061435917 -3.141592653589793  -1.256637061435917 1.256637061435917 -3.141592653589793  -0.6283185307179586 1.256637061435917 -3.141592653589793  0 1.256637061435917 -3.141592653589793  0.6283185307179586 1.256637061435917 -3.141592653589793  1.256637061435917 1.256637061435917 -3.141592653589793  1.884955592153876 1.256637061435917 -3.141592653589793  2.513274122871834 1.256637061435917 -3.141592653589793  3.141592653589793 1.256637061435917 -3.141592653589793  -3.141592653589793 1.884955592153876 -3.141592653589793  -2.513274122871834 1.884955592153876 -3.141592653589793  -1.884955592153876 1.884955592153876 -3.141592653589793  -1.256637061435917 1.884955592153876 -3.141592653589793  -0.6283185307179586 1.884955592153876 -3.141592653589793  0 1.884955592153876 -3.141592653589793  0.6283185307179586 1.884955592153876 -3.141592653589793  1.256637061435917 1.884955592153876 -3.141592653589793  1.884955592153876 1.884955592153876 -3.141592653589793  2.513274122871834 1.884955592153876 -3.141592653589793  3.141592653589793 1.884955592153876 -3.141592653589793  -3.141592653589793 2.513274122871834 -3.141592653589793  -2.513274122871834 2.513274122871834 -3.141592653589793  -1.884955592153876 2.513274122871834 -3.141592653589793  -1.256637061435917 2.513274122871834 -3.141592653589793  -0.6283185307179586 2.513274122871834 -3.141592653589793  0 2.513274122871834 -3.141592653589793  0.6283185307179586 2.513274122871834 -3.141592653589793  1.256637061435917 2.513274122871834 -3.141592653589793  1.884955592153876 2.513274122871834 -3.141592653589793  2.513274122871834 2.513274122871834 -3.141592653589793  3.141592653589793 2.513274122871834 -3.141592653589793  -3.141592653589793 3.141592653589793 -3.141592653589793  -2.513274122871834 3.141592653589793 -3.141592653589793  -1.884955592153876 3.141592653589793 -3.141592653589793  -1.256637061435917 3.141592653589793 -3.141592653589793  -0.6283185307179586 3.141592653589793 -3.141592653589793  0 3.141592653589793 -3.141592653589793  0.6283185307179586 3.141592653589793 -3.141592653589793  1.256637061435917 3.141592653589793 -3.141592653589793  1.884955592153876 3.141592653589793 -3.141592653589793  2.513274122871834 3.141592653589793 -3.141592653589793  3.141592653589793 3.141592653589793 -3.141592653589793  -3.141592653589793 -3.141592653589793 -2.513274122871834  -2.513274122871834 -3.141592653589793 -2.513274122871834  -1.884955592153876 -3.141592653589793 -2.513274122871834  -1.256637061435917 -3.141592653589793 -2.513274122871834  -0.6283185307179586 -3.141592653589793 -2.513274122871834  0 -3.141592653589793 -2.513274122871834  0.6283185307179586 -3.141592653589793 -2.513274122871834  1.256637061435917 -3.141592653589793 -2.513274122871834  1.884955592153876 -3.141592653589793 -2.513274122871834  2.513274122871834 -3.141592653589793 -2.513274122871834  3.141592653589793 -3.141592653589793 -2.513274122871834  -3.141592653589793 -2.513274122871834 -2.513274122871834  -2.513274122871834 -2.513274122871834 -2.513274122871834  -1.884955592153876 -2.513274122871834 -2.513274122871834  -1.256637061435917 -2.513274122871834 -2.513274122871834  -0.6283185307179586 -2.513274122871834 -2.513274122871834  0 -2.513274122871834 -2.513274122871834  0.6283185307179586 -2.513274122871834 -2.513274122871834  1.256637061435917 -2.513274122871834 -2.513274122871834  1.884955592153876 -2.513274122871834 -2.513274122871834  2.513274122871834 -2.513274122871834 -2.513274122871834  3.141592653589793 -2.513274122871834 -2.513274122871834  -3.141592653589793 -1.884955592153876 -2.513274122871834  -2.513274122871834 -1.884955592153876 -2.513274122871834  -1.884955592153876 -1.884955592153876 -2.513274122871834  -1.256637061435917 -1.884955592153876 -2.513274122871834  -0.6283185307179586 -1.884955592153876 -2.513274122871834  0 -1.884955592153876 -2.513274122871834  0.6283185307179586 -1.884955592153876 -2.513274122871834  1.256637061435917 -1.884955592153876 -2.513274122871834  1.884955592153876 -1.884955592153876 -2.513274122871834  2.513274122871834 -1.884955592153876 -2.513274122871834  3.141592653589793 -1.884955592153876 -2.513274122871834  -3.141592653589793 -1.256637061435917 -2.513274122871834  -2.513274122871834 -1.256637061435917 -2.513274122871834  -1.884955592153876 -1.256637061435917 -2.513274122871834  -1.256637061435917 -1.256637061435917 -2.513274122871834  -0.6283185307179586 -1.256637061435917 -2.513274122871834  0 -1.256637061435917 -2.513274122871834  0.6283185307179586 -1.256637061435917 -2.513274122871834  1.256637061435917 -1.256637061435917 -2.513274122871834  1.884955592153876 -1.256637061435917 -2.513274122871834  2.513274122871834 -1.256637061435917 -2.513274122871834  3.141592653589793 -1.256637061435917 -2.513274122871834  -3.141592653589793 -0.6283185307179586 -2.513274122871834  -2.513274122871834 -0.6283185307179586 -2.513274122871834  -1.884955592153876 -0.6283185307179586 -2.513274122871834  -1.256637061435917 -0.6283185307179586 -2.513274122871834  -0.6283185307179586 -0.6283185307179586 -2.513274122871834  0 -0.6283185307179586 -2.513274122871834  0.6283185307179586 -0.6283185307179586 -2.513274122871834  1.256637061435917 -0.6283185307179586 -2.513274122871834  1.884955592153876 -0.6283185307179586 -2.513274122871834  2.513274122871834 -0.6283185307179586 -2.513274122871834  3.141592653589793 -0.6283185307179586 -2.513274122871834  -3.141592653589793 0 -2.513274122871834  -2.513274122871834 0 -2.513274122871834  -1.884955592153876 
[...]
<PointData  Vectors="f_11"> 
<DataArray  type="Float64"  Name="f_11"  NumberOfComponents="3" format="ascii">-3.5425412094825092e-15 1.0329160015643756e-15 -2.9460809359263154e-17  -5.4390196132281077e-01 2.5908536812151409e-03 -7.4528936514298054e-03  -7.4065602765496774e-01 5.4121935224506210e-03 1.2068648950219276e-03  -6.4785361188273916e-01 5.6858185636326081e-03 8.4515595352797641e-03  -3.6143172713379235e-01 3.1042084659192357e-03 6.0331474666793748e-03  9.6976126183936861e-16 -4.9511904440200642e-15 -9.0028642800101033e-18  3.6143172713379279e-01 -3.1042084659254378e-03 -6.0331474666793939e-03  6.4785361188274204e-01 -5.6858185636359474e-03 -8.4515595352796635e-03  7.4065602765496374e-01 -5.4121935224522516e-03 -1.2068648950222158e-03  5.4390196132280610e-01 -2.5908536812148421e-03 7.4528936514299208e-03  -3.5425412094825092e-15 1.0329160015643756e-15 -2.9460809359263154e-17  -3.1042084659256819e-03 3.6143172713379434e-01 -6.0331474666797062e-03  -4.4749754321068630e-01 2.6329232720688905e-01 -1.3393519066431639e-02  -5.9053913766056154e-01 4.2398156114883900e-02 -6.3467534220438947e-03  -4.9291328862392880e-01 -2.1858637276043558e-01 4.1625848162159072e-04  -2.6145292282821930e-01 -4.4629784409455769e-01 -1.1899357110682009e-03  2.5908536812157177e-03 -5.4390196132280821e-01 -7.4528936514298037e-03  2.6329232720689116e-01 -4.4749754321068375e-01 -1.3393519066431566e-02  4.9382205811774293e-01 -2.2149336831184771e-01 -1.4383902831149792e-02  5.9234408007913952e-01 3.8697047513225807e-02 -6.7847117580492125e-03  4.4629784409454859e-01 2.6145292282821886e-01 1.1899357110681692e-03  -3.1042084659256819e-03 3.6143172713379434e-01 -6.0331474666797062e-03  -5.6858185636365528e-03 6.4785361188274204e-01 -8.4515595352797866e-03  -2.2149336831184685e-01 4.9382205811774288e-01 -1.4383902831149865e-02  -2.4669192434660112e-01 1.4665945527080229e-01 -7.2045478266821016e-03  -1.4686519229192488e-01 -2.4921409208929185e-01 2.9028119676477440e-03  -3.8697047513227521e-02 -5.9234408007914063e-01 6.7847117580491162e-03  5.4121935224510807e-03 -7.4065602765496297e-01 1.2068648950221490e-03  4.2398156114884150e-02 -5.9053913766056643e-01 -6.3467534220436155e-03  1.4665945527080165e-01 -2.4669192434660295e-01 -7.2045478266818804e-03  2.4921409208929174e-01 1.4686519229192480e-01 -2.9028119676478203e-03  2.1858637276043147e-01 4.9291328862392941e-01 -4.1625848162160341e-04  -5.6858185636365528e-03 6.4785361188274204e-01 -8.4515595352797866e-03  -5.4121935224523254e-03 7.4065602765496519e-01 -1.2068648950222349e-03  3.8697047513226779e-02 5.9234408007913786e-01 -6.7847117580492481e-03  1.4686519229192496e-01 2.4921409208929168e-01 -2.9028119676477557e-03  2.4669192434660075e-01 -1.4665945527080274e-01 7.2045478266820687e-03  2.2149336831184380e-01 -4.9382205811774665e-01 1.4383902831149974e-02  5.6858185636326792e-03 -6.4785361188274082e-01 8.4515595352796895e-03  -2.1858637276043427e-01 -4.9291328862392797e-01 4.1625848162151196e-04  -2.4921409208929221e-01 -1.4686519229192474e-01 2.9028119676477527e-03  -1.4665945527080149e-01 2.4669192434660209e-01 7.2045478266819386e-03  -4.2398156114885392e-02 5.9053913766056310e-01 6.3467534220435834e-03  -5.4121935224523254e-03 7.4065602765496519e-01 -1.2068648950222349e-03  -2.5908536812149466e-03 5.4390196132280655e-01 7.4528936514299355e-03  2.6145292282821803e-01 4.4629784409455220e-01 1.1899357110683143e-03  4.9291328862392686e-01 2.1858637276043186e-01 -4.1625848162148783e-04  5.9053913766056354e-01 -4.2398156114885517e-02 6.3467534220438757e-03  4.4749754321068114e-01 -2.6329232720688689e-01 1.3393519066431435e-02  3.1042084659198103e-03 -3.6143172713379240e-01 6.0331474666796567e-03  -4.4629784409455492e-01 -2.6145292282821830e-01 -1.1899357110682364e-03  -5.9234408007914274e-01 -3.8697047513227431e-02 6.7847117580491613e-03  -4.9382205811774293e-01 2.2149336831184480e-01 1.4383902831149865e-02  -2.6329232720688961e-01 4.4749754321068136e-01 1.3393519066431566e-02  -2.5908536812149466e-03 5.4390196132280655e-01 7.4528936514299355e-03  1.1453330963541975e-16 -4.7463176151813518e-15 7.6915853039674396e-17  3.6143172713379629e-01 -3.1042084659264435e-03 -6.0331474666796446e-03  6.4785361188273916e-01 -5.6858185636366092e-03 -8.4515595352795472e-03  7.4065602765496730e-01 -5.4121935224520122e-03 -1.2068648950219292e-03  5.4390196132280610e-01 -2.5908536812150810e-03 7.4528936514298575e-03  -4.2190536957908472e-15 2.8597110282613422e-16 -1.8279675069134803e-16  -5.4390196132281299e-01 2.5908536812150450e-03 -7.4528936514298974e-03  -7.4065602765496807e-01 5.4121935224506913e-03 1.2068648950222130e-03  -6.4785361188274326e-01 5.6858185636325413e-03 8.4515595352795472e-03  -3.6143172713379185e-01 3.1042084659189560e-03 6.0331474666795127e-03  1.1453330963541975e-16 -4.7463176151813518e-15 7.6915853039674396e-17  2.5908536812152849e-03 -5.4390196132281454e-01 -7.4528936514299867e-03  2.6329232720688950e-01 -4.4749754321068724e-01 -1.3393519066431672e-02  4.9382205811774232e-01 -2.2149336831184685e-01 -1.4383902831149788e-02  5.9234408007914208e-01 3.8697047513226182e-02 -6.7847117580490468e-03  4.4629784409455064e-01 2.6145292282821775e-01 1.1899357110681742e-03  -3.1042084659252179e-03 3.6143172713379523e-01 -6.0331474666796342e-03  -4.4749754321068613e-01 2.6329232720688822e-01 -1.3393519066431624e-02  -5.9053913766056254e-01 4.2398156114883838e-02 -6.3467534220434940e-03  -4.9291328862393041e-01 -2.1858637276043716e-01 4.1625848162133550e-04  -2.6145292282821936e-01 -4.4629784409455664e-01 -1.1899357110683093e-03  2.5908536812152849e-03 -5.4390196132281454e-01 -7.4528936514299867e-03  5.4121935224509289e-03 -7.4065602765497041e-01 1.2068648950222464e-03  4.2398156114884684e-02 -5.9053913766057053e-01 -6.3467534220435669e-03  1.4665945527080093e-01 -2.4669192434660345e-01 -7.2045478266820045e-03  2.4921409208929177e-01 1.4686519229192291e-01 -2.9028119676480450e-03  2.1858637276043227e-01 4.9291328862392730e-01 -4.1625848162151071e-04  -5.6858185636358173e-03 6.4785361188274493e-01 -8.4515595352798976e-03  -2.2149336831184596e-01 4.9382205811774144e-01 -1.4383902831150049e-02  -2.4669192434660200e-01 1.4665945527080140e-01 -7.2045478266821294e-03  -1.4686519229192610e-01 -2.4921409208929379e-01 2.9028119676477978e-03  -3.8697047513226272e-02 -5.9234408007914263e-01 6.7847117580492619e-03  5.4121935224509289e-03 -7.4065602765497041e-01 1.2068648950222464e-03  5.6858185636331944e-03 -6.4785361188274071e-01 8.4515595352798074e-03  -2.1858637276043441e-01 -4.9291328862392869e-01 4.1625848162159999e-04  -2.4921409208929138e-01 -1.4686519229192441e-01 2.9028119676478199e-03  -1.4665945527080110e-01 2.4669192434660125e-01 7.2045478266819134e-03  -4.2398156114885441e-02 5.9053913766056632e-01 6.3467534220435131e-03  -5.4121935224522169e-03 7.4065602765496286e-01 -1.2068648950221402e-03  3.8697047513226515e-02 5.9234408007913797e-01 -6.7847117580492212e-03  1.4686519229192496e-01 2.4921409208929093e-01 -2.9028119676479639e-03  2.4669192434660064e-01 -1.4665945527080312e-01 7.2045478266818822e-03  2.2149336831184421e-01 -4.9382205811774421e-01 1.4383902831149901e-02  5.6858185636331944e-03 -6.4785361188274071e-01 8.4515595352798074e-03  3.1042084659200927e-03 -3.6143172713379340e-01 6.0331474666796281e-03  -4.4629784409455736e-01 -2.6145292282821930e-01 -1.1899357110681144e-03  -5.9234408007914152e-01 -3.8697047513227514e-02 6.7847117580491084e-03  -4.9382205811773999e-01 2.2149336831184391e-01 1.4383902831149835e-02  -2.6329232720688761e-01 4.4749754321068108e-01 1.3393519066431540e-02  -2.5908536812145073e-03 5.4390196132280655e-01 7.4528936514299034e-03  2.6145292282821836e-01 4.4629784409455364e-01 1.1899357110683063e-03  4.9291328862392869e-01 2.1858637276043144e-01 -4.1625848162139324e-04  5.9053913766056254e-01 -4.2398156114885156e-02 6.3467534220434212e-03  4.4749754321068058e-01 -2.6329232720688833e-01 1.3393519066431521e-02  3.1042084659200927e-03 -3.6143172713379340e-01 6.0331474666796281e-03  -3.5425412094825092e-15 1.0329160015643756e-15 -2.9460809359263154e-17  -5.4390196132281077e-01 2.5908536812151409e-03 -7.4528936514298054e-03  -7.4065602765496774e-01 5.4121935224506210e-03 1.2068648950219276e-03  -6.4785361188273916e-01 5.6858185636326081e-03 8.4515595352797641e-03  -3.6143172713379235e-01 3.1042084659192357e-03 6.0331474666793748e-03  9.6976126183936861e-16 -4.9511904440200642e-15 -9.0028642800101033e-18  3.6143172713379279e-01 -3.1042084659254378e-03 -6.0331474666793939e-03  6.4785361188274204e-01 -5.6858185636359474e-03 -8.4515595352796635e-03  7.4065602765496374e-01 -5.4121935224522516e-03 -1.2068648950222158e-03  5.4390196132280610e-01 -2.5908536812148421e-03 7.4528936514299208e-03  -3.5425412094825092e-15 1.0329160015643756e-15 -2.9460809359263154e-17  -1.3620407427447684e-02 -6.7684556789023706e-03 9.0404596359610734e-02  -4.0841989790673339e-01 -5.6521741232718158e-03 3.8016610266823583e-02  -5.9167065595893542e-01 -5.2885495304352036e-03 5.3650398896712913e-04  -5.4798663108624401e-01 -7.0030621605160406e-03 3.0912367707599257e-02  -3.2204731780518747e-01 -1.0610413562020025e-02 7.3533881712860807e-02  -6.7684556789031035e-03 -1.3620407427447689e-02 9.0404596359610942e-02  3.1962239550600891e-01 -1.5200109211832378e-02 7.0425058293447515e-02  5.6097090955529649e-01 -1.5165089289310341e-02 2.5906341525663963e-02  6.0525106203318235e-01 -1.2720831770887535e-02 -1.1321154156777313e-03  4.0233614874968726e-01 -9.0712842763493954e-03 4.1689927418335521e-02  -1.3620407427447684e-02 -6.7684556789023706e-03 9.0404596359610734e-02  -1.5200109211831752e-02 3.1962239550600963e-01 7.0425058293447085e-02  -3.2998935621515885e-01 2.4240102463313370e-01 1.7886654405266184e-02  -4.6723375128429639e-01 6.5460190975934085e-02 -3.1467046821788788e-02  -4.2282022891618204e-01 -1.4690870786553603e-01 -1.6193035557305325e-02  -2.4397789487526436e-01 -3.3225243165323359e-01 2.1280569489732722e-02  -5.6521741232721237e-03 -4.0841989790673394e-01 3.8016610266823736e-02  2.4240102463313459e-01 -3.2998935621516284e-01 1.7886654405266499e-02  4.3764236878259882e-01 -1.4782272717137354e-01 -2.0736894066205273e-02  4.8233888514827206e-01 6.3069322366217442e-02 -3.2371113140339532e-02  3.2261995888770345e-01 2.4233037266414745e-01 2.1696749901149635e-02  -1.5200109211831752e-02 3.1962239550600963e-01 7.0425058293447085e-02  -1.5165089289310426e-02 5.6097090955529794e-01 2.5906341525663790e-02  -1.4782272717137387e-01 4.3764236878259938e-01 -2.0736894066205252e-02  -1.8132211696999848e-01 1.5327026867918631e-01 -7.8099153531275764e-02  -1.3851422951482978e-01 -1.8075875261059438e-01 -7.4494585284008014e-02  -6.7155503428642779e-02 -4.7095382657660967e-01 -2.6804285018983812e-02  -5.2885495304353103e-03 -5.9167065595893054e-01 5.3650398896703882e-04  6.5460190975934737e-02 -4.6723375128429318e-01 -3.1467046821788545e-02  1.5327026867918711e-01 -1.8132211696999806e-01 -7.8099153531275889e-02  1.9674653975861123e-01 1.5021538857505001e-01 -7.6889983577166005e-02  1.3921407374535028e-01 4.3762130802872551e-01 -1.6232452340784222e-02  -1.5165089289310426e-02 5.6097090955529794e-01 2.5906341525663790e-02  -1.2720831770887731e-02 6.0525106203317969e-01 -1.1321154156777042e-03  6.3069322366217290e-02 4.8233888514827306e-01 -3.2371113140339546e-02  1.5021538857504962e-01 1.9674653975861239e-01 -7.6889983577166074e-02  1.9360520593036226e-01 -1.3674233337310965e-01 -7.3108558551689337e-02  1.4368869648163696e-01 -4.2545927731429600e-01 -1.1067027319225851e-02  -7.0030621605158888e-03 -5.4798663108625167e-01 3.0912367707598951e-02  -1.4690870786553628e-01 -4.2282022891618021e-01 -1.6193035557305422e-02  -1.8075875261059446e-01 -1.3851422951482961e-01 -7.4494585284008055e-02  -1.3674233337310987e-01 1.9360520593036318e-01 -7.3108558551689157e-02  -7.0841341002697372e-02 4.8362602272782174e-01 -2.7701704311316636e-02  -1.2720831770887731e-02 6.0525106203317969e-01 -1.1321154156777042e-03  -9.0712842763491491e-03 4.0233614874968737e-01 4.1689927418336208e-02  2.4233037266414834e-01 3.2261995888770367e-01 2.1696749901149951e-02  4.3762130802872551e-01 1.3921407374535097e-01 -1.6232452340784295e-02  4.8362602272782368e-01 -7.0841341002697539e-02 -2.7701704311316699e-02  3.2743264388035626e-01 -2.4706579258553824e-01 2.5572570407792990e-02  -1.0610413562019767e-02 -3.2204731780519169e-01 7.3533881712860447e-02  -3.3225243165323282e-01 -2.4397789487526467e-01 2.1280569489732469e-02  -4.7095382657661072e-01 -6.7155503428643279e-02 -2.6804285018983645e-02  -4.2545927731429317e-01 1.4368869648163701e-01 -1.1067027319225931e-02  -2.4706579258553790e-01 3.2743264388035287e-01 2.5572570407793295e-02  -9.0712842763491491e-03 4.0233614874968737e-01 4.1689927418336208e-02  -6.7684556789025067e-03 -1.3620407427448225e-02 9.0404596359610651e-02  3.1962239550600957e-01 -1.5200109211832227e-02 7.0425058293447917e-02  5.6097090955529827e-01 -1.5165089289310893e-02 2.5906341525663904e-02  6.0525106203318013e-01 -1.2720831770887252e-02 -1.1321154156776309e-03  4.0233614874968859e-01 -9.0712842763491092e-03 4.1689927418335930e-02  -1.3620407427447939e-02 -6.7684556789028927e-03 9.0404596359610734e-02  -4.0841989790673511e-01 -5.6521741232722312e-03 3.8016610266823590e-02  -5.9167065595893298e-01 -5.2885495304351871e-03 5.3650398896720004e-04  -5.4798663108624213e-01 -7.0030621605162539e-03 3.0912367707599184e-02  -3.2204731780519130e-01 -1.0610413562020245e-02 7.3533881712860807e-02  -6.7684556789025067e-03 -1.3620407427448225e-02 9.0404596359610651e-02  -5.6521741232721124e-03 -4.0841989790673555e-01 3.8016610266823757e-02  2.4240102463313476e-01 -3.2998935621516196e-01 1.7886654405266437e-02  4.3764236878260049e-01 -1.4782272717137460e-01 -2.0736894066205182e-02  4.8233888514827677e-01 6.3069322366217304e-02 -3.2371113140339726e-02  3.2261995888770373e-01 2.4233037266414842e-01 2.1696749901149726e-02  -1.5200109211832404e-02 3.1962239550600996e-01 7.0425058293447265e-02  -3.2998935621515957e-01 2.4240102463313390e-01 1.7886654405266496e-02  -4.6723375128430411e-01 6.5460190975934501e-02 -3.1467046821788441e-02  -4.2282022891617865e-01 -1.4690870786553539e-01 -1.6193035557305255e-02  -2.4397789487526483e-01 -3.3225243165323298e-01 2.1280569489732670e-02  -5.6521741232721124e-03 -4.0841989790673555e-01 3.8016610266823757e-02  -5.2885495304350900e-03 -5.9167065595893276e-01 5.3650398896702711e-04  6.5460190975934640e-02 -4.6723375128429867e-01 -3.1467046821788934e-02  1.5327026867918625e-01 -1.8132211696999795e-01 -7.8099153531276014e-02  1.9674653975861175e-01 1.5021538857504885e-01 -7.6889983577166018e-02  1.3921407374535030e-01 4.3762130802872606e-01 -1.6232452340784184e-02  -1.5165089289310730e-02 5.6097090955529694e-01 2.5906341525663828e-02  -1.4782272717137451e-01 4.3764236878259749e-01 -2.0736894066205217e-02  -1.8132211696999767e-01 1.5327026867918672e-01 -7.8099153531276111e-02  -1.3851422951482928e-01 -1.8075875261059485e-01 -7.4494585284007944e-02  -6.7155503428643251e-02 -4.7095382657661500e-01 -2.6804285018983652e-02  -5.2885495304350900e-03 -5.9167065595893276e-01 5.3650398896702711e-04  -7.0030621605162314e-03 -5.4798663108624601e-01 3.0912367707599135e-02  -1.4690870786553592e-01 -4.2282022891617893e-01 -1.6193035557305602e-02  -1.8075875261059501e-01 -1.3851422951482997e-01 -7.4494585284007583e-02  -1.3674233337310990e-01 1.9360520593036204e-01 -7.3108558551689434e-02  -7.0841341002697358e-02 4.8362602272782401e-01 -2.7701704311316640e-02  -1.2720831770887182e-02 6.0525106203318191e-01 -1.1321154156776964e-03  6.3069322366217401e-02 4.8233888514827605e-01 -3.2371113140339636e-02  1.5021538857504890e-01 1.9674653975861409e-01 -7.6889983577166476e-02  1.9360520593036143e-01 -1.3674233337310993e-01 -7.3108558551689351e-02  1.4368869648163723e-01 -4.2545927731429595e-01 -1.1067027319226038e-02  -7.0030621605162314e-03 -5.4798663108624601e-01 3.0912367707599135e-02  -1.0610413562019977e-02 -3.2204731780518880e-01 7.3533881712860460e-02  -3.3225243165323326e-01 -2.4397789487526442e-01 2.1280569489732670e-02  -4.7095382657661389e-01 -6.7155503428643737e-02 -2.6804285018983711e-02  -4.2545927731429534e-01 1.4368869648163682e-01 -1.1067027319225792e-02  -2.4706579258553646e-01 3.2743264388035198e-01 2.5572570407792889e-02  -9.0712842763488542e-03 4.0233614874968793e-01 4.1689927418335791e-02  2.4233037266414939e-01 3.2261995888770345e-01 2.1696749901149698e-02  4.3762130802872590e-01 1.3921407374534903e-01 -1.6232452340784090e-02  4.8362602272782340e-01 -7.0841341002697469e-02 -2.7701704311316785e-02  3.2743264388035376e-01 -2.4706579258553718e-01 2.5572570407792764e-02  -1.0610413562019977e-02 -3.2204731780518880e-01 7.3533881712860460e-02  -1.3620407427447684e-02 -6.7684556789023706e-03 9.0404596359610734e-02  -4.0841989790673339e-01 -5.6521741232718158e-03 3.8016610266823583e-02  -5.9167065595893542e-01 -5.2885495304352036e-03 5.3650398896712913e-04  -5.4798663108624401e-01 -7.0030621605160406e-03 3.0912367707599257e-02  -3.2204731780518747e-01 -1.0610413562020025e-02 7.3533881712860807e-02  -6.7684556789031035e-03 -1.3620407427447689e-02 9.0404596359610942e-02  3.1962239550600891e-01 -1.5200109211832378e-02 7.0425058293447515e-02  5.6097090955529649e-01 -1.5165089289310341e-02 2.5906341525663963e-02  6.0525106203318235e-01 -1.2720831770887535e-02 -1.1321154156777313e-03  4.0233614874968726e-01 -9.0712842763493954e-03 4.1689927418335521e-02  -1.3620407427447684e-02 -6.7684556789023706e-03 9.0404596359610734e-02  -1.0353600639422023e-02 -3.4574605277626104e-03 6.1347545280484979e-02  -9.7798589683652223e-02 -3.5231851607248560e-03 3.7062006167242478e-02  -1.9855401857024710e-01 -4.2621810753847005e-03 2.6043648243269501e-03  -2.5117245698964841e-01 -6.2024568662799370e-03 1.0045868492314362e-02  -1.7872436760867547e-01 -8.7179271490964421e-03 4.1073633807380730e-02  -3.4574605277631876e-03 -1.0353600639422133e-02 6.1347545280485472e-02  1.8090148756569790e-01 -1.0293588475370629e-02 5.2299194966137670e-02  2.6506272350443250e-01 -8.7085348741773160e-03 1.9304269927742142e-02  2.0520173409307882e-01 -6.2099780533151488e-03 -3.3988296459211143e-03  8.7348905020105588e-02 -4.2745879588543863e-03 2.4791789345954832e-02  -1.0353600639422023e-02 -3.4574605277626104e-03 6.1347545280484979e-02  -1.0293588475370886e-02 1.8090148756569718e-01 5.2299194966137219e-02  -6.9570869760370205e-02 1.5189624465783194e-01 2.9076780931835577e-02  -1.5146766046838903e-01 8.2584121245167078e-02 -8.4396406888639711e-03  -2.0395400520839849e-01 5.1416490659825719e-04 -8.5259338276000036e-03  -1.5038253248615721e-01 -6.9254000031036808e-02 1.7819346276079191e-02  -3.5231851607253049e-03 -9.7798589683652876e-02 3.7062006167242624e-02  1.5189624465783033e-01 -6.9570869760369886e-02 2.9076780931835914e-02  2.1715516349292685e-01 1.0280033872242006e-03 7.3288136838988273e-04  1.5851435827932914e-01 8.3525935210383789e-02 -1.4392558508920022e-02  5.9689606327809980e-02 1.5169277634864772e-01 1.6947771459623746e-02  -1.0293588475370886e-02 1.8090148756569718e-01 5.2299194966137219e-02  -8.7085348741772223e-03 2.6506272350443311e-01 1.9304269927741789e-02  1.0280033872237502e-03 2.1715516349292668e-01 7.3288136838984207e-04  -3.5433251983809852e-02 1.0036742118889094e-01 -3.6048923089408789e-02  -9.0072041273976944e-02 -3.6498017558563814e-02 -4.3474185561502857e-02  -8.3517307680190708e-02 -1.5132257537358038e-01 -1.8665315051311367e-02  -4.2621810753845045e-03 -1.9855401857024932e-01 2.6043648243268768e-03  8.2584121245166744e-02 -1.5146766046838850e-01 -8.4396406888640543e-03  1.0036742118889126e-01 -3.5433251983809706e-02 -3.6048923089409032e-02  4.2948506666556370e-02 1.0091656848535252e-01 -4.2515451366680584e-02  -8.3147397371429836e-03 2.1593880096037602e-01 -1.0571370159529097e-02  -8.7085348741772223e-03 2.6506272350443311e-01 1.9304269927741789e-02  -6.2099780533150769e-03 2.0520173409307768e-01 -3.3988296459211589e-03  8.3525935210384122e-02 1.5851435827932947e-01 -1.4392558508920133e-02  1.0091656848535252e-01 4.2948506666555822e-02 -4.2515451