<?xml version="1.0"?>
<VTKFile type="UnstructuredGrid"  version="0.1"  >
<UnstructuredGrid>
<Piece  NumberOfPoints="1380" NumberOfCells="2630">
<Points>
<DataArray  type="Float64"  NumberOfComponents="3"  format="ascii">-1 -1 0  1 -1 0  1 1 0  -1 1 0  0 -1 0  1 0 0  0 1 0  -1 0 0  0 0 0  -1 -0.5 0  -0.5 -1 0  -0.5 1 0  -1 0.5 0  1 -0.5 0  0.5 -1 0  1 0.5 0  0.5 1 0  0.4166666666666666 -0.4166666666666667 0  -0.4166666666666667 0.4166666666666667 0  -0.25 -0.5 0  0.5 0.25 0  -0.4861111111111112 -0.06944444444444445 0  0.0732758620689655 0.507183908045977 0  -0.625 -0.625 0  0.625 0.625 0  0.7380952380952381 -0.25 0  -0.7099116161616161 0.2105429292929293 0  -0.25 0.7380952380952381 0  0.105392156862745 -0.6348039215686275 0  0.6770833333333334 -0.6770833333333333 0  -0.6770833333333334 0.6770833333333334 0  0.3472222222222222 -0.06944444444444446 0  -0.7264957264957265 -0.3044871794871795 0  0.3141940982507127 0.7297313660835709 0  0.02049587951122483 -0.3227479397556124 0  -0.2690972222222223 0.1475694444444444 0  0.3859500089908372 -0.7274430156831472 0  -0.2228477945123298 -0.1761765495248019 0  0.2182539682539683 0.1884920634920635 0  0.75 0.375 0  -0.145442219440968 -0.7602211097204841 0  0.7088913690476191 0.0427827380952381 0  -0.75 -1 0  -1 -0.75 0  1 0.75 0  0.75 1 0  -0.7439982703698937 -0.04614153195464455 0  -0.4609235096577606 -0.3356498099556895 0  0.4063134471431929 0.4895621842856023 0  0.25 -1 0  -0.25 -1 0  -0.75 1 0  0.75 -1 0  -1 -0.25 0  -1 0.25 0  1 -0.25 0  -0.25 1 0  1 -0.75 0  -1 0.75 0  0.25 1 0  1 0.25 0  -0.4041423272138783 -0.7597141090712928 0  0.06500839607911253 0.7578103030529481 0  -0.1572801182352047 0.3838997021864289 0  -0.6528005242053915 0.4409494757946086 0  -0.4930160984848485 0.1544744318181818 0  -0.4732142857142858 0.7752976190476191 0  0.6398809523809523 -0.4538690476190476 0  0.5166054117396399 -0.2161233620965164 0  -0.002273787244753427 0.2232363985975174 0  0.1500564496765022 -0.1524955293952667 0  0.2016720420046758 -0.4410343282803009 0  -0.08495178036419618 0.6274139771124571 0  -0.8367311471133162 0.3642591720794645 0  -0.8333333333333334 -0.625 0  -0.594323836800685 -0.8231079456002283 0  -0.4466957714776065 -0.5349126855671806 0  0.8125 0.5625 0  0.78125 0.78125 0  0.5091392650016769 0.7947130883338923 0  0.125 -0.8382681931833136 0  -0.8184523809523809 -0.8184523809523809 0  -0.07781530426104531 -0.5819319697006881 0  0.5085055196703295 0.04967610411902112 0  0.2918471072074933 -0.276017202318847 0  0.5120763537765269 -0.5898771553229597 0  0.625 -0.8585349462365591 0  0.8158532234335381 -0.8158532234335381 0  -0.5198088446315396 0.5739411553684605 0  -0.8585349462365591 0.625 0  -0.8150493805516597 0.8156205699829586 0  0.8585349462365591 -0.625 0  -0.2688268348649726 0.5439331383603209 0  0.8242100426758139 -0.4436043596336612 0  0.5833756314287952 0.4479378157143976 0  0.8690476190476191 -0.125 0  -0.125 0.8690476190476191 0  -0.8692745600729823 0.125 0  0.8696725120759167 0.125 0  -0.625 0.8711516477451908 0  0.2339522463269718 0.3879558377955778 0  0.2453709502295031 0.5655822922838026 0  0.1730610651637797 0.02021709580868947 0  0.3245402594056757 -0.5644672020485209 0  -0.7291666666666666 -0.4816595441595442 0  -1 -0.375 0  -0.5811140848639904 -0.2127276307675001 0  0.673332592838314 0.2158348143233718 0  0.375 1 0  -0.5714768890989919 0.2985103444040069 0  -1 -0.125 0  -0.8453692574786325 -0.1875 0  -0.3144549134065865 -0.02408675326008025 0  -0.2898414972096258 -0.3336092734780093 0  -0.1075052092206287 -0.4224330421314983 0  -0.05043970703604117 -0.1652278959397459 0  0.6459672950297897 -0.1113415301525317 0  0.4645210271029513 0.6398480556579343 0  0.3512863754411909 0.0937979496253573 0  -0.6063160985568274 0.03891469652249891 0  -0.3428819444444445 0.8690476190476191 0  0.625 1 0  -0.1602164796159982 0.02697860906625157 0  0.04648110064133829 -0.4808416424239687 0  1 0.875 0  -0.3836102479201657 0.6484936449177356 0  -0.3776011723096096 0.263078478984336 0  -0.6024978259969829 -0.3949628096211138 0  0.125 1 0  0.2010781308272777 0.8456221018461906 0  0.2822509696388829 -0.845902544691141 0  -0.3285533674953515 -0.6289773550938936 0  0.3461306793221754 0.278777492464833 0  0.4737475672408696 -0.8508448959534423 0  0.2384632828836344 -0.7029523187242811 0  -0.004777287059791593 0.3759269695907358 0  -0.8499735021850066 -0.3912320205328522 0  0.1222536293721587 0.2963971539625205 0  -0.3769456520999688 -0.203572526805711 0  -0.2749617205755651 -0.8464290792698902 0  0.004805888512766143 -0.747174355248311 0  -0.125 -1 0  -0.06001061822252458 -0.8724007765244854 0  0.875 0.4375 0  0.854421179608893 0.271342359217786 0  0.875 1 0  -0.1499861095763589 0.2358309656934888 0  0.3381943639137225 0.8663061796405532 0  -0.7853090110442228 0.4998412775277108 0  0.7398165998560814 -0.5535192694951373 0  0.1580042122341573 -0.3100246140259917 0  -0.7291666666666667 -0.7142857142857142 0  -0.375 -1 0  0.6483368386154684 0.8514905990110488 0  -0.1295370103291928 -0.2826118305021242 0  0.07458201853700455 0.1123894386563915 0  0.6146465857036327 -0.3161203659316075 0  0.5551898493894731 -0.740296118159085 0  0.375 -1 0  0.482702798370208 -0.084133350091034 0  0.87890625 0.68359375 0  -0.05917195534525846 0.4971092425697621 0  0.1260710309213975 0.6343750312956699 0  0.8690476190476191 -0.3077066815262848 0  -0.2912010232560567 0.3668168386732139 0  -0.875 1 0  -1 0.875 0  1 -0.875 0  0.875 -1 0  -0.8689564281364567 -0.006189266075306407 0  -0.7449425635110547 0.08458938160051771 0  -0.7150266761936593 -0.1739444581417552 0  -0.5260034831318311 -0.711099823962112 0  -0.4724626808827322 -0.871722230709409 0  0.4734436795977052 0.377714794132168 0  -0.875 -1 0  -1 -0.875 0  0.6927189078571988 0.5156567235715964 0  -0.3742497615796874 -0.4296005251260107 0  -0.1969436423297711 -0.6387157229772615 0  -0.6179496409766825 -0.08933356056510935 0  -0.424405057115988 0.04452428810878029 0  -0.08479048335844169 0.1279607007132633 0  0.003830300099055113 0.8712085230656206 0  0.8748778838820267 -1.379218479898026e-05 0  -0.375 1 0  -0.625 1 0  1 0.125 0  -0.125 1 0  1 -0.375 0  1 -0.125 0  1 -0.625 0  0.625 -1 0  0.125 -1 0  -0.625 -1 0  -1 -0.625 0  -1 0.125 0  -1 0.375 0  -1 0.625 0  1 0.375 0  1 0.625 0  0.6325660748712082 0.3335187599557389 0  -0.06420945895056573 0.7549874027425891 0  -0.8769015540914771 0.2478802253893416 0  0.871875 0.871875 0  -0.6868091492840067 0.3270978624973681 0  -0.5363597469565949 0.412994850055505 0  -0.6803734992638302 0.5574295000651103 0  -0.7076253581162534 -0.8803439094224437 0  -0.8778089002295137 -0.5106896447504627 0  -0.3860184984222981 0.530566778071246 0  0.6109900617121508 0.1128453077697081 0  0.3896945134930274 -0.1915382873255086 0  0.7605656944697778 -0.06822134873122943 0  0.3576151269893478 0.5948388411612135 0  -0.5689902680792265 -0.5143596830118065 0  0.6262446286847614 -0.5735657901943212 0  0.2030558252325225 -0.5625263842513452 0  0.6123273142928579 0.7407533260723429 0  0.4016460890123554 -0.3042863223111857 0  -0.59039693199147 0.7578418819188018 0  0.7276932493917544 -0.3705808024528924 0  0.5222536818742854 -0.4713886230400014 0  -0.5101986527137737 0.8848365765607674 0  0.510560172809238 0.5356013299918891 0  -0.3603569195756083 0.75823710606415 0  0.1967279277813232 0.728226870058472 0  -0.6086880986371127 0.1545624071548516 0  -0.38105366729386 0.1511189987807864 0  -0.2944659463671584 -0.7359061804869591 0  0.5060729154966499 -0.3475227845833823 0  -0.09281616240412746 -0.06197858250969457 0  0.7649739583333334 0.6673177083333334 0  0.7628906249999999 0.890234375 0  -0.2666864184909611 0.2585504071132311 0  0.3635064892129658 0.3878003602709461 0  -0.2339409722222222 0.8901937905844155 0  -0.1718792125974916 -0.8957733325456778 0  0.1001768566329531 0.4023510017391879 0  0.3120260172693757 -0.4540546875576884 0  0.7804062804433681 0.1896628610854537 0  0.4087715451998049 0.187961780041608 0  -0.1584963477271457 0.5451611892421655 0  -0.8926817849258324 0.463022006336401 0  0.2338091473445219 -0.07576267331277289 0  0.08171112182813692 -0.2349087687359925 0  0.04635385178956847 -0.1044635073718474 0  -0.4377391632114205 -0.6448874471423088 0  -0.1907678351227189 0.6480215912813945 0  0.300605946475244 0.4741444604171038 0  -0.2145033720757486 -0.06751709909419711 0  0.6069191921170397 -0.005492331448357812 0  0.0214718770761248 0.6032397936031719 0  0.5476675683364878 0.8992752415326501 0  0.4387475014316537 0.9093708953002239 0  -0.4932997685306436 -0.4381009159993523 0  0.2515197695339056 -0.1791673369138964 0  -0.7291666666666667 -0.6088789682539681 0  -0.9166666666666667 -0.6875 0  0.620579540363709 -0.2122431523583302 0  -0.484950136419973 0.6719440339397442 0  0.2857044415400258 0.0137589173127316 0  -0.8945708364098356 -0.288306105327986 0  0.4043102720140535 0.7842914560451557 0  0.04123256238752064 -0.9026968245801402 0  0.2003676884403109 -0.9091888601740487 0  0.1068775558538842 -0.7373377130403223 0  -0.4804566783514427 -0.1763307203045643 0  0.108286342087769 -0.3993789328997278 0  -0.191883080105361 -0.3640821726430649 0  -0.07025064492006244 0.2984876656890053 0  -0.7039324641409584 0.788312126296613 0  -0.7311286585775438 0.8932502354831682 0  0.5171409396884947 0.1503852691889257 0  0.4229392823658633 -0.003216522184234835 0  -0.5621736087218259 -0.919558629836806 0  -0.626474064879544 -0.7266572613636506 0  0.2446828746617422 0.2867616783302419 0  0.1759429608742923 0.4776611759306416 0  -0.3468240303741654 -0.5260416435617549 0  -0.7465808808425306 0.4069574477998361 0  -0.7819962170660292 0.2802441065650652 0  -0.3742623214119594 -0.8547800509641984 0  0.1014498009713561 0.8506721983266377 0  0.4285217620918213 -0.5230190595570253 0  0.4091738370487775 -0.6256346204225141 0  0.78125 0.46875 0  0.90625 0.53125 0  -0.4791801348852565 0.2553992655702126 0  0.7843318610782772 -0.7086046956885941 0  0.8909728264971901 -0.7355183796514634 0  0.7041908166528879 -0.7830649143180282 0  0.7311821352
[...]
<PointData  Vectors="f_22"> 
<DataArray  type="Float64"  Name="f_22"  NumberOfComponents="3" format="ascii">-2.8281256669438282e-03 -2.8722914611352050e-03 0.0000000000000000e+00  -2.8281256669438282e-03 -2.8722914611352050e-03 0.0000000000000000e+00  -2.8281256669438282e-03 -2.8722914611352050e-03 0.0000000000000000e+00  -2.8281256669438282e-03 -2.8722914611352050e-03 0.0000000000000000e+00  -2.8280339315392257e-03 -2.9321125171378271e-03 0.0000000000000000e+00  -2.8922350234137431e-03 -2.8721821197352838e-03 0.0000000000000000e+00  -2.8280339315392257e-03 -2.9321125171378271e-03 0.0000000000000000e+00  -2.8922350234137431e-03 -2.8721821197352838e-03 0.0000000000000000e+00  -2.8923114545592421e-03 -2.9322287832348019e-03 0.0000000000000000e+00  -2.3549354160040349e-03 -2.8722303771147608e-03 0.0000000000000000e+00  -2.8280827444848488e-03 -2.3969864249201609e-03 0.0000000000000000e+00  -2.8280827444848488e-03 -2.3969864249201609e-03 0.0000000000000000e+00  -3.3654316621047082e-03 -2.8722215007061860e-03 0.0000000000000000e+00  -2.3549354160040349e-03 -2.8722303771147608e-03 0.0000000000000000e+00  -2.8280666551928086e-03 -3.4074502292884236e-03 0.0000000000000000e+00  -3.3654316621047082e-03 -2.8722215007061860e-03 0.0000000000000000e+00  -2.8280666551928086e-03 -3.4074502292884236e-03 0.0000000000000000e+00  -2.3804140244600394e-03 -3.3979475474690637e-03 0.0000000000000000e+00  -3.3564644541205805e-03 -2.4219147327790361e-03 0.0000000000000000e+00  -2.3549819189074184e-03 -2.5661694991479895e-03 0.0000000000000000e+00  -3.2401677375353145e-03 -3.4074735586770888e-03 0.0000000000000000e+00  -2.7821770552508463e-03 -2.3987820616590758e-03 0.0000000000000000e+00  -3.3645770847656863e-03 -3.0466897859999834e-03 0.0000000000000000e+00  -2.3811773731452776e-03 -2.4240314485684165e-03 0.0000000000000000e+00  -3.3147257053839762e-03 -3.3575541926346678e-03 0.0000000000000000e+00  -2.5255652438119541e-03 -3.2521194398837392e-03 0.0000000000000000e+00  -3.1958169617237026e-03 -2.4845130744428619e-03 0.0000000000000000e+00  -3.2086540587423248e-03 -2.5661035500410476e-03 0.0000000000000000e+00  -2.3863536905022009e-03 -3.0947528339661384e-03 0.0000000000000000e+00  -2.4141633253211229e-03 -3.3153936849097451e-03 0.0000000000000000e+00  -3.2722499520508653e-03 -2.4573393470784526e-03 0.0000000000000000e+00  -2.7821841561869055e-03 -3.3642156684619931e-03 0.0000000000000000e+00  -2.4657900943904059e-03 -2.5000282171549391e-03 0.0000000000000000e+00  -3.2182586932128416e-03 -3.3403147854453121e-03 0.0000000000000000e+00  -2.4482416570350213e-03 -2.9646541005275131e-03 0.0000000000000000e+00  -3.1148332196053205e-03 -2.5440813543144624e-03 0.0000000000000000e+00  -2.4574405121951673e-03 -3.3858300838714894e-03 0.0000000000000000e+00  -2.6219464323513713e-03 -2.5996604225702602e-03 0.0000000000000000e+00  -3.1688666371523498e-03 -3.2453651607500743e-03 0.0000000000000000e+00  -3.3392766601418175e-03 -3.2382923017933198e-03 0.0000000000000000e+00  -2.4911643943812518e-03 -2.7061953839778918e-03 0.0000000000000000e+00  -2.9596670240213184e-03 -3.2841680154149762e-03 0.0000000000000000e+00  -2.8281039282328185e-03 -2.5238285629590788e-03 0.0000000000000000e+00  -2.4802721475914364e-03 -2.8722736817926664e-03 0.0000000000000000e+00  -3.1947632209570285e-03 -2.8722591433512790e-03 0.0000000000000000e+00  -2.8281075410703359e-03 -3.2382891629973072e-03 0.0000000000000000e+00  -2.8189274474774914e-03 -2.5174669908508075e-03 0.0000000000000000e+00  -2.4366835064290435e-03 -2.4044955324879773e-03 0.0000000000000000e+00  -3.3662558610839800e-03 -3.3944582282040758e-03 0.0000000000000000e+00  -2.8280440756951446e-03 -3.2806279367474989e-03 0.0000000000000000e+00  -2.8280441276326389e-03 -2.5661220929993128e-03 0.0000000000000000e+00  -2.8281039282328185e-03 -2.5238285629590788e-03 0.0000000000000000e+00  -2.8281075410703359e-03 -3.2382891629973072e-03 0.0000000000000000e+00  -2.5255746771699430e-03 -2.8722023540770727e-03 0.0000000000000000e+00  -3.2401058217370127e-03 -2.8721940157238309e-03 0.0000000000000000e+00  -2.5255746771699430e-03 -2.8722023540770727e-03 0.0000000000000000e+00  -2.8280441276326389e-03 -2.5661220929993128e-03 0.0000000000000000e+00  -2.4802721475914364e-03 -2.8722736817926664e-03 0.0000000000000000e+00  -3.1947632209570285e-03 -2.8722591433512790e-03 0.0000000000000000e+00  -2.8280440756951446e-03 -3.2806279367474989e-03 0.0000000000000000e+00  -3.2401058217370127e-03 -2.8721940157238309e-03 0.0000000000000000e+00  -2.4906551422204069e-03 -2.4286256857082365e-03 0.0000000000000000e+00  -3.1852802906676670e-03 -3.0339963021954524e-03 0.0000000000000000e+00  -3.3436286497422777e-03 -2.6889910956168152e-03 0.0000000000000000e+00  -3.3626282666996033e-03 -2.4402032403810334e-03 0.0000000000000000e+00  -3.1242410348989217e-03 -2.3977407917875710e-03 0.0000000000000000e+00  -3.1634628174777245e-03 -2.4012626357859837e-03 0.0000000000000000e+00  -2.3648159052053756e-03 -3.3466244442372003e-03 0.0000000000000000e+00  -2.5678412231237707e-03 -3.4051562890231898e-03 0.0000000000000000e+00  -3.2107353012135816e-03 -2.9286226286931579e-03 0.0000000000000000e+00  -2.6557919459164994e-03 -3.1584018692328440e-03 0.0000000000000000e+00  -2.3694678679336239e-03 -3.2254677729636038e-03 0.0000000000000000e+00  -3.3129295425253268e-03 -2.7978411630229195e-03 0.0000000000000000e+00  -3.3334177331208865e-03 -2.6281163521429656e-03 0.0000000000000000e+00  -2.3811613959880702e-03 -2.6236963713639218e-03 0.0000000000000000e+00  -2.5664206026241804e-03 -2.4103005167075242e-03 0.0000000000000000e+00  -2.3545191916018965e-03 -2.4090931350808833e-03 0.0000000000000000e+00  -3.3494953000787696e-03 -3.1579872250586888e-03 0.0000000000000000e+00  -3.1559230989538561e-03 -3.1995805923180900e-03 0.0000000000000000e+00  -3.1382753569209531e-03 -3.4064034027155624e-03 0.0000000000000000e+00  -2.5862867325820195e-03 -3.1232036605149216e-03 0.0000000000000000e+00  -2.5604226882127105e-03 -2.6042720542375076e-03 0.0000000000000000e+00  -2.3634207993709615e-03 -2.8090054916715796e-03 0.0000000000000000e+00  -2.9704389748582615e-03 -3.4064648959362389e-03 0.0000000000000000e+00  -2.4956959729353690e-03 -3.3214404953842637e-03 0.0000000000000000e+00  -2.3659528833940057e-03 -3.4058950819637179e-03 0.0000000000000000e+00  -2.6139820139530036e-03 -3.3575057602066669e-03 0.0000000000000000e+00  -2.5570764572788751e-03 -3.1533732169646404e-03 0.0000000000000000e+00  -3.3443983611729511e-03 -2.3960600103787818e-03 0.0000000000000000e+00  -3.3146736583002248e-03 -2.6579390358289399e-03 0.0000000000000000e+00  -3.1098770950592114e-03 -2.5998897333713304e-03 0.0000000000000000e+00  -2.3811162402220874e-03 -3.0923506262493889e-03 0.0000000000000000e+00  -3.3561481290443917e-03 -2.5443411405400257e-03 0.0000000000000000e+00  -2.3684671284031930e-03 -3.1416884340997519e-03 0.0000000000000000e+00  -3.3639584915972414e-03 -3.3824802636911937e-03 0.0000000000000000e+00  -2.6964272753581477e-03 -3.0767089932136728e-03 0.0000000000000000e+00  -3.0327357738097059e-03 -2.7364985936469189e-03 0.0000000000000000e+00  -3.0831326137001833e-03 -2.6729637042152733e-03 0.0000000000000000e+00  -3.0831485757574144e-03 -3.0757880880906076e-03 0.0000000000000000e+00  -3.0296345247957006e-03 -2.4239890201512367e-03 0.0000000000000000e+00  -3.3455585258546213e-03 -3.2632830105253021e-03 0.0000000000000000e+00  -3.3481975706495548e-03 -3.2757685468934555e-03 0.0000000000000000e+00  -2.9243297888957910e-03 -3.1892784683761363e-03 0.0000000000000000e+00  -2.3587595685038965e-03 -3.3482694159969661e-03 0.0000000000000000e+00  -2.3576661898987291e-03 -2.5026454559037474e-03 0.0000000000000000e+00  -2.4056585102049479e-03 -2.8722102065578663e-03 0.0000000000000000e+00  -2.5723161211638782e-03 -2.4057620749137459e-03 0.0000000000000000e+00  -3.2021250011660591e-03 -3.3188355426177940e-03 0.0000000000000000e+00  -2.8280550337864948e-03 -3.3804436317750480e-03 0.0000000000000000e+00  -3.2864824973927189e-03 -2.4029494707238966e-03 0.0000000000000000e+00  -2.6964394640842763e-03 -2.8721753521539026e-03 0.0000000000000000e+00  -2.6061400172548346e-03 -2.6397812463462016e-03 0.0000000000000000e+00  -2.8540299581000213e-03 -2.4969468119437578e-03 0.0000000000000000e+00  -2.4384852109787924e-03 -2.5216026049732299e-03 0.0000000000000000e+00  -2.3776374630135140e-03 -2.7631172799373609e-03 0.0000000000000000e+00  -2.6374574423638198e-03 -2.8521205103800630e-03 0.0000000000000000e+00  -2.7171430487666621e-03 -3.3419220401409962e-03 0.0000000000000000e+00  -3.3038227922276013e-03 -3.4076792577649260e-03 0.0000000000000000e+00  -3.0376707269914216e-03 -3.3668388214316359e-03 0.0000000000000000e+00  -2.9536439184801836e-03 -2.4150528948190648e-03 0.0000000000000000e+00  -3.0327440061225447e-03 -2.4714531342831625e-03 0.0000000000000000e+00  -2.8280771130238251e-03 -3.3575328208328582e-03 0.0000000000000000e+00  -2.9349712775229159e-03 -2.6848136502494917e-03 0.0000000000000000e+00  -2.3577805359931568e-03 -3.0053803274332769e-03 0.0000000000000000e+00  -3.0238979873255219e-03 -2.8722633498276993e-03 0.0000000000000000e+00  -3.2969250508273341e-03 -2.4410550721601946e-03 0.0000000000000000e+00  -3.2535267868417615e-03 -2.4451005187235159e-03 0.0000000000000000e+00  -2.3926432021098209e-03 -2.4135066655081427e-03 0.0000000000000000e+00  -2.8280387584372489e-03 -3.1231883952330518e-03 0.0000000000000000e+00  -3.0672995306474295e-03 -3.2247130613527420e-03 0.0000000000000000e+00  -2.5965911706117744e-03 -3.3126685826349645e-03 0.0000000000000000e+00  -2.3832399116144941e-03 -2.4838988262372110e-03 0.0000000000000000e+00  -3.2688447803967602e-03 -3.3635336459455858e-03 0.0000000000000000e+00  -2.6033388403523105e-03 -3.4081752511972039e-03 0.0000000000000000e+00  -2.4350469388802506e-03 -3.2681862651462649e-03 0.0000000000000000e+00  -3.3397380353035679e-03 -2.9246191739460336e-03 0.0000000000000000e+00  -2.3949109333151497e-03 -2.6461192459095867e-03 0.0000000000000000e+00  -3.2847439717642998e-03 -3.1193692017505961e-03 0.0000000000000000e+00  -2.5844401417703584e-03 -2.4456037555898725e-03 0.0000000000000000e+00  -2.5973426008444604e-03 -2.5375255034936657e-03 0.0000000000000000e+00  -2.4772446422436306e-03 -2.9397581229704144e-03 0.0000000000000000e+00  -2.8280324716984215e-03 -2.7365105665243402e-03 0.0000000000000000e+00  -2.6334372393339430e-03 -2.8369055421898679e-03 0.0000000000000000e+00  -3.3619963017374704e-03 -3.0678663630351113e-03 0.0000000000000000e+00  -3.2616874384330261e-03 -3.0983902652736797e-03 0.0000000000000000e+00  -2.8281095413416712e-03 -3.0678870715605704e-03 0.0000000000000000e+00  -3.2248871034903262e-03 -2.6995898059514974e-03 0.0000000000000000e+00  -3.0368912270605786e-03 -3.3581510996931467e-03 0.0000000000000000e+00  -3.3654083013520222e-03 -2.5632692894802449e-03 0.0000000000000000e+00  -2.3566586363698971e-03 -3.2501589649234844e-03 0.0000000000000000e+00  -2.4603304923979771e-03 -3.1692079205351978e-03 0.0000000000000000e+00  -2.4452179853682271e-03 -2.5026658022166150e-03 0.0000000000000000e+00  -2.8280623005053061e-03 -2.4468964470746582e-03 0.0000000000000000e+00  -3.0587896426777623e-03 -3.3401322684258757e-03 0.0000000000000000e+00  -2.4885418254808221e-03 -2.7298072836992584e-03 0.0000000000000000e+00  -3.0650538249004360e-03 -3.0487113538361752e-03 0.0000000000000000e+00  -2.4544057283823867e-03 -3.3644021207111068e-03 0.0000000000000000e+00  -2.4701675728674255e-03 -3.3946702418111208e-03 0.0000000000000000e+00  -2.8280550337864948e-03 -3.3804436317750480e-03 0.0000000000000000e+00  -2.7591476080866240e-03 -3.4083157242519326e-03 0.0000000000000000e+00  -3.2662116659611003e-03 -3.0620065843463768e-03 0.0000000000000000e+00  -3.3656783550481064e-03 -2.8382822844589470e-03 0.0000000000000000e+00  -3.3079052877599785e-03 -3.1247765550811882e-03 0.0000000000000000e+00  -2.4625447209470912e-03 -3.0767068276176075e-03 0.0000000000000000e+00  -3.3348554814136475e-03 -2.5200958740805284e-03 0.0000000000000000e+00  -2.8281220416183344e-03 -2.6812440152989042e-03 0.0000000000000000e+00  -3.0238979873255219e-03 -2.8722633498276993e-03 0.0000000000000000e+00  -2.6372304259331732e-03 -2.8722890039385575e-03 0.0000000000000000e+00  -2.8281095413416712e-03 -3.0678870715605704e-03 0.0000000000000000e+00  -2.8824105854808250e-03 -2.6725335537872595e-03 0.0000000000000000e+00  -3.0238167493971983e-03 -2.5184358625485216e-03 0.0000000000000000e+00  -2.6250341919976578e-03 -2.4892049443322960e-03 0.0000000000000000e+00  -2.4423208313335497e-03 -2.3962684404733280e-03 0.0000000000000000e+00  -2.6325589615967663e-03 -2.4014804725263884e-03 0.0000000000000000e+00  -3.3406780944905553e-03 -3.4082271039151618e-03 0.0000000000000000e+00  -2.8281220416183344e-03 -2.6812440152989042e-03 0.0000000000000000e+00  -2.6372304259331732e-03 -2.8722890039385575e-03 0.0000000000000000e+00  -3.3632821384474640e-03 -3.3006096094402009e-03 0.0000000000000000e+00  -2.3743358538836881e-03 -2.4474692403267050e-03 0.0000000000000000e+00  -2.3886300491375266e-03 -2.6336009463627445e-03 0.0000000000000000e+00  -2.7510772134498695e-03 -2.4204167319185356e-03 0.0000000000000000e+00  -2.9624139906481582e-03 -2.4182196623562030e-03 0.0000000000000000e+00  -3.0874548584944685e-03 -2.7981769671952751e-03 0.0000000000000000e+00  -3.0294897002776456e-03 -2.9382058445436079e-03 0.0000000000000000e+00  -2.8922096188266277e-03 -3.0679835536365383e-03 0.0000000000000000e+00  -2.8280623005053061e-03 -2.4468964470746582e-03 0.0000000000000000e+00  -2.8280839406157059e-03 -2.4240051406711001e-03 0.0000000000000000e+00  -3.0831292448644091e-03 -2.8721899232301952e-03 0.0000000000000000e+00  -2.8280324716984215e-03 -2.7365105665243402e-03 0.0000000000000000e+00  -2.4056585102049479e-03 -2.8722102065578663e-03 0.0000000000000000e+00  -2.6964394640842763e-03 -2.8721753521539026e-03 0.0000000000000000e+00  -2.3811400283214705e-03 -2.8722406694716212e-03 0.0000000000000000e+00  -2.8280771130238251e-03 -3.3575328208328582e-03 0.0000000000000000e+00  -2.8280387584372489e-03 -3.1231883952330518e-03 0.0000000000000000e+00  -2.8280839406157059e-03 -2.4240051406711001e-03 0.0000000000000000e+00  -2.3811400283214705e-03 -2.8722406694716212e-03 0.0000000000000000e+00  -3.0831292448644091e-03 -2.8721899232301952e-03 0.0000000000000000e+00  -3.3392408051847442e-03 -2.8722118143760245e-03 0.0000000000000000e+00  -3.3146993084755090e-03 -2.8722511140857982e-03 0.0000000000000000e+00  -3.3392408051847442e-03 -2.8722118143760245e-03 0.0000000000000000e+00  -3.3146993084755090e-03 -2.8722511140857982e-03 0.0000000000000000e+00  -3.3139591474704755e-03 -3.3521544191308654e-03 0.0000000000000000e+00  -3.1886970689776512e-03 -2.8302986637928217e-03 0.0000000000000000e+00  -3.2378719266522651e-03 -2.6838512023199270e-03 0.0000000000000000e+00  -3.0286069968218986e-03 -3.0725686594790815e-03 0.0000000000000000e+00  -3.3092555063021787e-03 -2.4648784392998944e-03 0.0000000000000000e+00  -3.3552807647849103e-03 -2.3968162080418021e-03 0.0000000000000000e+00  -3.3514195245180666e-03 -2.4598407977109850e-03 0.0000000000000000e+00  -2.6448829883324062e-03 -2.4825791515733033e-03 0.0000000000000000e+00  -2.3541678350435524e-03 -2.6852295775948113e-03 0.0000000000000000e+00  -3.3599552868196119e-03 -2.4394861419192609e-03 0.0000000000000000e+00  -3.0656905630613040e-03 -3.3667913179351492e-03 0.0000000000000000e+00  -2.6006161924932757e-03 -3.3875841391729925e-03 0.0000000000000000e+00  -2.7840364128961710e-03 -3.2254567382749453e-03 0.0000000000000000e+00  -3.3337738532848433e-03 -3.3707319722959318e-03 0.0000000000000000e+00  -2.3540623645703137e-03 -2.4024109529145162e-03 0.0000000000000000e+00  -2.3609775902005267e-03 -3.3565961210898689e-03 0.0000000000000000e+00  -2.3583509006523157e-03 -3.2271347310902070e-03 0.0000000000000000e+00  -3.2056709698907279e-03 -3.3659875956705610e-03 0.0000000000000000e+00  -2.4659447036990876e-03 -3.3926069420905950e-03 0.0000000000000000e+00  -3.1852302665129366e-03 -2.4088150107620361e-03 0.0000000000000000e+00  -2.4087644191183605e-03 -3.2638699122960512e-03 0.0000000000000000e+00  -2.3598069296662115e-03 -3.4040642396618612e-03 0.0000000000000000e+00  -3.0089512566588740e-03 -2.3962745473648322e-03 0.0000000000000000e+00  -3.3587330120269324e-03 -3.4062118847935710e-03 0.0000000000000000e+00  -3.1847256408217700e-03 -2.4575164034037838e-03 0.0000000000000000e+00  -3.2199221624398177e-03 -3.2193787380548010e-03 0.0000000000000000e+00  -3.1243374227857249e-03 -2.4160795185687116e-03 0.0000000000000000e+00  -3.1196836681411386e-03 -2.4427846376250980e-03 0.0000000000000000e+00  -2.4658163444008282e-03 -2.5167299167603908e-03 0.0000000000000000e+00  -2.4265505341824010e-03 -3.4067320055841772e-03 0.0000000000000000e+00  -2.7939567398477970e-03 -2.7857216066132120e-03 0.0000000000000000e+00  -3.2811481843862240e-03 -3.2201294119416791e-03 0.0000000000000000e+00  -3.0007894537914513e-03 -3.2227024458536878e-03 0.0000000000000000e+00  -3.2489707077972192e-03 -2.5467840166500293e-03 0.0000000000000000e+00  -3.3454946297612974e-03 -3.3742160553518466e-03 0.0000000000000000e+00  -3.0007494732181301e-03 -2.5856200850357747e-03 0.0000000000000000e+00  -2.6672750059445567e-03 -2.6681303249958955e-03 0.0000000000000000e+00  -3.3515568987304146e-03 -3.0871441974931772e-03 0.0000000000000000e+00  -2.3647701088351180e-03 -3.3385405791035096e-03 0.0000000000000000e+00  -3.1702914548024934e-03 -3.2006081686474807e-03 0.0000000000000000e+00  -3.1682138183323620e-03 -3.3953466640967438e-03 0.0000000000000000e+00  -3.3557650213006975e-03 -2.6872163528172317e-03 0.0000000000000000e+00  -3.3657248011808301e-03 -2.7067716032327057e-03 0.0000000000000000e+00  -2.7722851899904515e-03 -3.2631229881993577e-03 0.0000000000000000e+00  -2.5440179356584873e-03 -3.0595213085204643e-03 0.0000000000000000e+00  -2.7277627886111975e-03 -3.0052357167883771e-03 0.0000000000000000e+00  -2.3923255640302321e-03 -2.4124805967135178e-03 0.0000000000000000e+00  -3.2973208917807762e-03 -2.6419292297847992e-03 0.0000000000000000e+00  -3.3664062460316197e-03 -3.3291313724787084e-03 0.0000000000000000e+00  -2.7852380877314759e-03 -2.6104068699385318e-03 0.0000000000000000e+00  -2.8835395757621602e-03 -3.3693010260230703e-03 0.0000000000000000e+00  -3.3288287058753528e-03 -2.9661609299432559e-03 0.0000000000000000e+00  -2.9869034530039004e-03 -3.3973409768165820e-03 0.0000000000000000e+00  -2.9712832705621260e-03 -3.4038591530882621e-03 0.0000000000000000e+00  -2.3707181976914070e-03 -2.3977749203425184e-03 0.0000000000000000e+00  -2.6177224829567825e-03 -3.2822729406589111e-03 0.0000000000000000e+00  -2.3734986203738395e-03 -2.5026646644659423e-03 0.0000000000000000e+00  -2.4223023875722810e-03 -2.7425528374928005e-03 0.0000000000000000e+00  -2.5728762036005691e-03 -3.3604847042828499e-03 0.0000000000000000e+00  -3.2769143622594955e-03 -2.3989303120890522e-03 0.0000000000000000e+00  -2.9141160672889383e-03 -3.3159355138581855e-03 0.0000000000000000e+00  -2.4823980651622981e-03 -2.7095598871044024e-03 0.0000000000000000e+00  -3.1519756227027661e-03 -3.3936773219655852e-03 0.0000000000000000e+00  -2.6774717773089215e-03 -2.9971185136158612e-03 0.0000000000000000e+00  -2.6871438502632265e-03 -3.2238385042283467e-03 0.0000000000000000e+00  -2.4671815546582856e-03 -3.0969359546944397e-03 0.0000000000000000e+00  -2.6217320313158907e-03 -2.3998026124016866e-03 0.0000000000000000e+00  -2.3899450483215196e-03 -3.0990497494616642e-03 0.0000000000000000e+00  -2.4136377655730279e-03 -2.6404933926487393e-03 0.0000000000000000e+00  -3.2865202531160635e-03 -2.8208902419566582e-03 0.0000000000000000e+00  -3.1466726541648699e-03 -2.4792790949994892e-03 0.0000000000000000e+00  -2.9961394793553272e-03 -2.5045644694611587e-03 0.0000000000000000e+00  -3.1187102892278940e-03 -3.4051136447538870e-03 0.0000000000000000e+00  -2.8871754261273995e-03 -3.3999094445389252e-03 0.0000000000000000e+00  -2.7028025447687117e-03 -2.4008004565693724e-03 0.0000000000000000e+00  -2.4568018419508365e