<?xml version="1.0"?>
<VTKFile type="UnstructuredGrid"  version="0.1"  >
<UnstructuredGrid>
<Piece  NumberOfPoints="1380" NumberOfCells="2630">
<Points>
<DataArray  type="Float64"  NumberOfComponents="3"  format="ascii">-1 -1 0  1 -1 0  1 1 0  -1 1 0  0 -1 0  1 0 0  0 1 0  -1 0 0  0 0 0  -1 -0.5 0  -0.5 -1 0  -0.5 1 0  -1 0.5 0  1 -0.5 0  0.5 -1 0  1 0.5 0  0.5 1 0  0.4166666666666666 -0.4166666666666667 0  -0.4166666666666667 0.4166666666666667 0  -0.25 -0.5 0  0.5 0.25 0  -0.4861111111111112 -0.06944444444444445 0  0.0732758620689655 0.507183908045977 0  -0.625 -0.625 0  0.625 0.625 0  0.7380952380952381 -0.25 0  -0.7099116161616161 0.2105429292929293 0  -0.25 0.7380952380952381 0  0.105392156862745 -0.6348039215686275 0  0.6770833333333334 -0.6770833333333333 0  -0.6770833333333334 0.6770833333333334 0  0.3472222222222222 -0.06944444444444446 0  -0.7264957264957265 -0.3044871794871795 0  0.3141940982507127 0.7297313660835709 0  0.02049587951122483 -0.3227479397556124 0  -0.2690972222222223 0.1475694444444444 0  0.3859500089908372 -0.7274430156831472 0  -0.2228477945123298 -0.1761765495248019 0  0.2182539682539683 0.1884920634920635 0  0.75 0.375 0  -0.145442219440968 -0.7602211097204841 0  0.7088913690476191 0.0427827380952381 0  -0.75 -1 0  -1 -0.75 0  1 0.75 0  0.75 1 0  -0.7439982703698937 -0.04614153195464455 0  -0.4609235096577606 -0.3356498099556895 0  0.4063134471431929 0.4895621842856023 0  0.25 -1 0  -0.25 -1 0  -0.75 1 0  0.75 -1 0  -1 -0.25 0  -1 0.25 0  1 -0.25 0  -0.25 1 0  1 -0.75 0  -1 0.75 0  0.25 1 0  1 0.25 0  -0.4041423272138783 -0.7597141090712928 0  0.06500839607911253 0.7578103030529481 0  -0.1572801182352047 0.3838997021864289 0  -0.6528005242053915 0.4409494757946086 0  -0.4930160984848485 0.1544744318181818 0  -0.4732142857142858 0.7752976190476191 0  0.6398809523809523 -0.4538690476190476 0  0.5166054117396399 -0.2161233620965164 0  -0.002273787244753427 0.2232363985975174 0  0.1500564496765022 -0.1524955293952667 0  0.2016720420046758 -0.4410343282803009 0  -0.08495178036419618 0.6274139771124571 0  -0.8367311471133162 0.3642591720794645 0  -0.8333333333333334 -0.625 0  -0.594323836800685 -0.8231079456002283 0  -0.4466957714776065 -0.5349126855671806 0  0.8125 0.5625 0  0.78125 0.78125 0  0.5091392650016769 0.7947130883338923 0  0.125 -0.8382681931833136 0  -0.8184523809523809 -0.8184523809523809 0  -0.07781530426104531 -0.5819319697006881 0  0.5085055196703295 0.04967610411902112 0  0.2918471072074933 -0.276017202318847 0  0.5120763537765269 -0.5898771553229597 0  0.625 -0.8585349462365591 0  0.8158532234335381 -0.8158532234335381 0  -0.5198088446315396 0.5739411553684605 0  -0.8585349462365591 0.625 0  -0.8150493805516597 0.8156205699829586 0  0.8585349462365591 -0.625 0  -0.2688268348649726 0.5439331383603209 0  0.8242100426758139 -0.4436043596336612 0  0.5833756314287952 0.4479378157143976 0  0.8690476190476191 -0.125 0  -0.125 0.8690476190476191 0  -0.8692745600729823 0.125 0  0.8696725120759167 0.125 0  -0.625 0.8711516477451908 0  0.2339522463269718 0.3879558377955778 0  0.2453709502295031 0.5655822922838026 0  0.1730610651637797 0.02021709580868947 0  0.3245402594056757 -0.5644672020485209 0  -0.7291666666666666 -0.4816595441595442 0  -1 -0.375 0  -0.5811140848639904 -0.2127276307675001 0  0.673332592838314 0.2158348143233718 0  0.375 1 0  -0.5714768890989919 0.2985103444040069 0  -1 -0.125 0  -0.8453692574786325 -0.1875 0  -0.3144549134065865 -0.02408675326008025 0  -0.2898414972096258 -0.3336092734780093 0  -0.1075052092206287 -0.4224330421314983 0  -0.05043970703604117 -0.1652278959397459 0  0.6459672950297897 -0.1113415301525317 0  0.4645210271029513 0.6398480556579343 0  0.3512863754411909 0.0937979496253573 0  -0.6063160985568274 0.03891469652249891 0  -0.3428819444444445 0.8690476190476191 0  0.625 1 0  -0.1602164796159982 0.02697860906625157 0  0.04648110064133829 -0.4808416424239687 0  1 0.875 0  -0.3836102479201657 0.6484936449177356 0  -0.3776011723096096 0.263078478984336 0  -0.6024978259969829 -0.3949628096211138 0  0.125 1 0  0.2010781308272777 0.8456221018461906 0  0.2822509696388829 -0.845902544691141 0  -0.3285533674953515 -0.6289773550938936 0  0.3461306793221754 0.278777492464833 0  0.4737475672408696 -0.8508448959534423 0  0.2384632828836344 -0.7029523187242811 0  -0.004777287059791593 0.3759269695907358 0  -0.8499735021850066 -0.3912320205328522 0  0.1222536293721587 0.2963971539625205 0  -0.3769456520999688 -0.203572526805711 0  -0.2749617205755651 -0.8464290792698902 0  0.004805888512766143 -0.747174355248311 0  -0.125 -1 0  -0.06001061822252458 -0.8724007765244854 0  0.875 0.4375 0  0.854421179608893 0.271342359217786 0  0.875 1 0  -0.1499861095763589 0.2358309656934888 0  0.3381943639137225 0.8663061796405532 0  -0.7853090110442228 0.4998412775277108 0  0.7398165998560814 -0.5535192694951373 0  0.1580042122341573 -0.3100246140259917 0  -0.7291666666666667 -0.7142857142857142 0  -0.375 -1 0  0.6483368386154684 0.8514905990110488 0  -0.1295370103291928 -0.2826118305021242 0  0.07458201853700455 0.1123894386563915 0  0.6146465857036327 -0.3161203659316075 0  0.5551898493894731 -0.740296118159085 0  0.375 -1 0  0.482702798370208 -0.084133350091034 0  0.87890625 0.68359375 0  -0.05917195534525846 0.4971092425697621 0  0.1260710309213975 0.6343750312956699 0  0.8690476190476191 -0.3077066815262848 0  -0.2912010232560567 0.3668168386732139 0  -0.875 1 0  -1 0.875 0  1 -0.875 0  0.875 -1 0  -0.8689564281364567 -0.006189266075306407 0  -0.7449425635110547 0.08458938160051771 0  -0.7150266761936593 -0.1739444581417552 0  -0.5260034831318311 -0.711099823962112 0  -0.4724626808827322 -0.871722230709409 0  0.4734436795977052 0.377714794132168 0  -0.875 -1 0  -1 -0.875 0  0.6927189078571988 0.5156567235715964 0  -0.3742497615796874 -0.4296005251260107 0  -0.1969436423297711 -0.6387157229772615 0  -0.6179496409766825 -0.08933356056510935 0  -0.424405057115988 0.04452428810878029 0  -0.08479048335844169 0.1279607007132633 0  0.003830300099055113 0.8712085230656206 0  0.8748778838820267 -1.379218479898026e-05 0  -0.375 1 0  -0.625 1 0  1 0.125 0  -0.125 1 0  1 -0.375 0  1 -0.125 0  1 -0.625 0  0.625 -1 0  0.125 -1 0  -0.625 -1 0  -1 -0.625 0  -1 0.125 0  -1 0.375 0  -1 0.625 0  1 0.375 0  1 0.625 0  0.6325660748712082 0.3335187599557389 0  -0.06420945895056573 0.7549874027425891 0  -0.8769015540914771 0.2478802253893416 0  0.871875 0.871875 0  -0.6868091492840067 0.3270978624973681 0  -0.5363597469565949 0.412994850055505 0  -0.6803734992638302 0.5574295000651103 0  -0.7076253581162534 -0.8803439094224437 0  -0.8778089002295137 -0.5106896447504627 0  -0.3860184984222981 0.530566778071246 0  0.6109900617121508 0.1128453077697081 0  0.3896945134930274 -0.1915382873255086 0  0.7605656944697778 -0.06822134873122943 0  0.3576151269893478 0.5948388411612135 0  -0.5689902680792265 -0.5143596830118065 0  0.6262446286847614 -0.5735657901943212 0  0.2030558252325225 -0.5625263842513452 0  0.6123273142928579 0.7407533260723429 0  0.4016460890123554 -0.3042863223111857 0  -0.59039693199147 0.7578418819188018 0  0.7276932493917544 -0.3705808024528924 0  0.5222536818742854 -0.4713886230400014 0  -0.5101986527137737 0.8848365765607674 0  0.510560172809238 0.5356013299918891 0  -0.3603569195756083 0.75823710606415 0  0.1967279277813232 0.728226870058472 0  -0.6086880986371127 0.1545624071548516 0  -0.38105366729386 0.1511189987807864 0  -0.2944659463671584 -0.7359061804869591 0  0.5060729154966499 -0.3475227845833823 0  -0.09281616240412746 -0.06197858250969457 0  0.7649739583333334 0.6673177083333334 0  0.7628906249999999 0.890234375 0  -0.2666864184909611 0.2585504071132311 0  0.3635064892129658 0.3878003602709461 0  -0.2339409722222222 0.8901937905844155 0  -0.1718792125974916 -0.8957733325456778 0  0.1001768566329531 0.4023510017391879 0  0.3120260172693757 -0.4540546875576884 0  0.7804062804433681 0.1896628610854537 0  0.4087715451998049 0.187961780041608 0  -0.1584963477271457 0.5451611892421655 0  -0.8926817849258324 0.463022006336401 0  0.2338091473445219 -0.07576267331277289 0  0.08171112182813692 -0.2349087687359925 0  0.04635385178956847 -0.1044635073718474 0  -0.4377391632114205 -0.6448874471423088 0  -0.1907678351227189 0.6480215912813945 0  0.300605946475244 0.4741444604171038 0  -0.2145033720757486 -0.06751709909419711 0  0.6069191921170397 -0.005492331448357812 0  0.0214718770761248 0.6032397936031719 0  0.5476675683364878 0.8992752415326501 0  0.4387475014316537 0.9093708953002239 0  -0.4932997685306436 -0.4381009159993523 0  0.2515197695339056 -0.1791673369138964 0  -0.7291666666666667 -0.6088789682539681 0  -0.9166666666666667 -0.6875 0  0.620579540363709 -0.2122431523583302 0  -0.484950136419973 0.6719440339397442 0  0.2857044415400258 0.0137589173127316 0  -0.8945708364098356 -0.288306105327986 0  0.4043102720140535 0.7842914560451557 0  0.04123256238752064 -0.9026968245801402 0  0.2003676884403109 -0.9091888601740487 0  0.1068775558538842 -0.7373377130403223 0  -0.4804566783514427 -0.1763307203045643 0  0.108286342087769 -0.3993789328997278 0  -0.191883080105361 -0.3640821726430649 0  -0.07025064492006244 0.2984876656890053 0  -0.7039324641409584 0.788312126296613 0  -0.7311286585775438 0.8932502354831682 0  0.5171409396884947 0.1503852691889257 0  0.4229392823658633 -0.003216522184234835 0  -0.5621736087218259 -0.919558629836806 0  -0.626474064879544 -0.7266572613636506 0  0.2446828746617422 0.2867616783302419 0  0.1759429608742923 0.4776611759306416 0  -0.3468240303741654 -0.5260416435617549 0  -0.7465808808425306 0.4069574477998361 0  -0.7819962170660292 0.2802441065650652 0  -0.3742623214119594 -0.8547800509641984 0  0.1014498009713561 0.8506721983266377 0  0.4285217620918213 -0.5230190595570253 0  0.4091738370487775 -0.6256346204225141 0  0.78125 0.46875 0  0.90625 0.53125 0  -0.4791801348852565 0.2553992655702126 0  0.7843318610782772 -0.7086046956885941 0  0.8909728264971901 -0.7355183796514634 0  0.7041908166528879 -0.7830649143180282 0  0.7311821352
[...]
<PointData  Vectors="f_22"> 
<DataArray  type="Float64"  Name="f_22"  NumberOfComponents="3" format="ascii">-2.8424319179576854e-03 -2.8855632280059503e-03 0.0000000000000000e+00  -2.8424319179576854e-03 -2.8855632280059503e-03 0.0000000000000000e+00  -2.8424319179576854e-03 -2.8855632280059503e-03 0.0000000000000000e+00  -2.8424319179576854e-03 -2.8855632280059503e-03 0.0000000000000000e+00  -2.8424048626854090e-03 -2.9188557305795939e-03 0.0000000000000000e+00  -2.8779243416257655e-03 -2.8855317592075243e-03 0.0000000000000000e+00  -2.8424048626854090e-03 -2.9188557305795939e-03 0.0000000000000000e+00  -2.8779243416257655e-03 -2.8855317592075243e-03 0.0000000000000000e+00  -2.8779437702237667e-03 -2.9188910709711420e-03 0.0000000000000000e+00  -2.6062454829618156e-03 -2.8855452585636455e-03 0.0000000000000000e+00  -2.8424205918164570e-03 -2.6482842780612250e-03 0.0000000000000000e+00  -2.8424205918164570e-03 -2.6482842780612250e-03 0.0000000000000000e+00  -3.1141140717580924e-03 -2.8855408027143657e-03 0.0000000000000000e+00  -2.6062454829618156e-03 -2.8855452585636455e-03 0.0000000000000000e+00  -2.8424127105953043e-03 -3.1561514551553082e-03 0.0000000000000000e+00  -3.1141140717580924e-03 -2.8855408027143657e-03 0.0000000000000000e+00  -2.8424127105953043e-03 -3.1561514551553082e-03 0.0000000000000000e+00  -2.6194810405953850e-03 -3.1517971383622466e-03 0.0000000000000000e+00  -3.1100376897149140e-03 -2.6612350637132006e-03 0.0000000000000000e+00  -2.6062607679109670e-03 -2.7344424993066088e-03 0.0000000000000000e+00  -3.0522990309069537e-03 -3.1561567135491905e-03 0.0000000000000000e+00  -2.8225585167524193e-03 -2.6492540973726470e-03 0.0000000000000000e+00  -3.1136454017479396e-03 -2.9763868474208454e-03 0.0000000000000000e+00  -2.6188006791705099e-03 -2.6612546401832784e-03 0.0000000000000000e+00  -3.0879959707430919e-03 -3.1304508169368158e-03 0.0000000000000000e+00  -2.6931621779079620e-03 -3.0770031713915329e-03 0.0000000000000000e+00  -3.0301591776950671e-03 -2.6913056332719810e-03 0.0000000000000000e+00  -3.0342240233018473e-03 -2.7344256123103287e-03 0.0000000000000000e+00  -2.6213750777075865e-03 -3.0005077081186552e-03 0.0000000000000000e+00  -2.6351610190839488e-03 -3.1090421832087062e-03 0.0000000000000000e+00  -3.0664296806877565e-03 -2.6777770150478533e-03 0.0000000000000000e+00  -2.8225624373482104e-03 -3.1351572621818816e-03 0.0000000000000000e+00  -2.6628940812926621e-03 -2.6990263774124309e-03 0.0000000000000000e+00  -3.0390672401151607e-03 -3.1232896160899104e-03 0.0000000000000000e+00  -2.6539955186571924e-03 -2.9351903286729112e-03 0.0000000000000000e+00  -2.9896170860257932e-03 -2.7232734212191676e-03 0.0000000000000000e+00  -2.6567099830085467e-03 -3.1458551307875574e-03 0.0000000000000000e+00  -2.7418168410742803e-03 -2.7513638018944425e-03 0.0000000000000000e+00  -3.0166611580257634e-03 -3.0759150218391635e-03 0.0000000000000000e+00  -3.1015863063301521e-03 -3.0699956557556059e-03 0.0000000000000000e+00  -2.6735294355983972e-03 -2.8051367788885632e-03 0.0000000000000000e+00  -2.9117948675356068e-03 -3.0932176455525590e-03 0.0000000000000000e+00  -2.8424243192442266e-03 -2.7108954665856924e-03 0.0000000000000000e+00  -2.6680821180848240e-03 -2.8855584748921203e-03 0.0000000000000000e+00  -3.0271805652227414e-03 -2.8855511056566042e-03 0.0000000000000000e+00  -2.8424262564120104e-03 -3.0699892494224662e-03 0.0000000000000000e+00  -2.8410588098746700e-03 -2.7077349236493118e-03 0.0000000000000000e+00  -2.6481240139877137e-03 -2.6522456665080316e-03 0.0000000000000000e+00  -3.1145707251649776e-03 -3.1500773428893652e-03 0.0000000000000000e+00  -2.8424076079462176e-03 -3.0935499583156952e-03 0.0000000000000000e+00  -2.8424074931915249e-03 -2.7344339901029654e-03 0.0000000000000000e+00  -2.8424243192442266e-03 -2.7108954665856924e-03 0.0000000000000000e+00  -2.8424262564120104e-03 -3.0699892494224662e-03 0.0000000000000000e+00  -2.6931642287778110e-03 -2.8855388708136096e-03 0.0000000000000000e+00  -3.0522826498682321e-03 -2.8855347135950992e-03 0.0000000000000000e+00  -2.6931642287778110e-03 -2.8855388708136096e-03 0.0000000000000000e+00  -2.8424074931915249e-03 -2.7344339901029654e-03 0.0000000000000000e+00  -2.6680821180848240e-03 -2.8855584748921203e-03 0.0000000000000000e+00  -3.0271805652227414e-03 -2.8855511056566042e-03 0.0000000000000000e+00  -2.8424076079462176e-03 -3.0935499583156952e-03 0.0000000000000000e+00  -3.0522826498682321e-03 -2.8855347135950992e-03 0.0000000000000000e+00  -2.6732666113995504e-03 -2.6646578973375870e-03 0.0000000000000000e+00  -3.0223982524106561e-03 -2.9700249650343423e-03 0.0000000000000000e+00  -3.1037378637124315e-03 -2.7964571616350123e-03 0.0000000000000000e+00  -3.1130153749982133e-03 -2.6692759034418296e-03 0.0000000000000000e+00  -2.9943356573790122e-03 -2.6487024147847588e-03 0.0000000000000000e+00  -3.0113780988670572e-03 -2.6505746593302867e-03 0.0000000000000000e+00  -2.6114565735336965e-03 -3.1249086231673021e-03 0.0000000000000000e+00  -2.7145221246169184e-03 -3.1549212535771916e-03 0.0000000000000000e+00  -3.0375999563856627e-03 -2.9170808740671844e-03 0.0000000000000000e+00  -2.7588914712751789e-03 -3.0323968073204580e-03 0.0000000000000000e+00  -2.6138537809072991e-03 -3.0659785868917748e-03 0.0000000000000000e+00  -3.0870994905622625e-03 -2.8513071204259379e-03 0.0000000000000000e+00  -3.0987049006858153e-03 -2.7630667268916712e-03 0.0000000000000000e+00  -2.6187954965694949e-03 -2.7608351949098813e-03 0.0000000000000000e+00  -2.7111462274303994e-03 -2.6545006524262382e-03 0.0000000000000000e+00  -2.6058471835347270e-03 -2.6546273581923847e-03 0.0000000000000000e+00  -3.1057795008150330e-03 -3.0294306968736075e-03 0.0000000000000000e+00  -3.0075487368343267e-03 -3.0504257364872924e-03 0.0000000000000000e+00  -2.9986396316696554e-03 -3.1555735642979474e-03 0.0000000000000000e+00  -2.7211108570227701e-03 -3.0147767110385269e-03 0.0000000000000000e+00  -2.7081425959771749e-03 -2.7511084155306983e-03 0.0000000000000000e+00  -2.6100958143912144e-03 -2.8569219959133593e-03 0.0000000000000000e+00  -2.9171975322475488e-03 -3.1556123394293656e-03 0.0000000000000000e+00  -2.6780452286622224e-03 -3.1138968023970408e-03 0.0000000000000000e+00  -2.6113412416348212e-03 -3.1553179941823826e-03 0.0000000000000000e+00  -2.7349754837055198e-03 -3.1304361899169670e-03 0.0000000000000000e+00  -2.7064763917743991e-03 -3.0271051926998422e-03 0.0000000000000000e+00  -3.1031799255459899e-03 -2.6477278970723781e-03 0.0000000000000000e+00  -3.0879828435937764e-03 -2.7779968589767361e-03 0.0000000000000000e+00  -2.9843109986182480e-03 -2.7489220762801888e-03 0.0000000000000000e+00  -2.6187830484185547e-03 -2.9963356516901417e-03 0.0000000000000000e+00  -3.1092339282680560e-03 -2.7234158921415996e-03 0.0000000000000000e+00  -2.6133401104470959e-03 -3.0212225698186992e-03 0.0000000000000000e+00  -3.1136281946919919e-03 -3.1431783843160182e-03 0.0000000000000000e+00  -2.7793887347023994e-03 -2.9884622558691348e-03 0.0000000000000000e+00  -2.9454229750310139e-03 -2.8204161309339764e-03 0.0000000000000000e+00  -2.9737443197179947e-03 -2.7855363137120732e-03 0.0000000000000000e+00  -2.9737490932310968e-03 -2.9879945419225965e-03 0.0000000000000000e+00  -2.9438525610778446e-03 -2.6612427460094208e-03 0.0000000000000000e+00  -3.1046772370492827e-03 -3.0848709892711268e-03 0.0000000000000000e+00  -3.1051131519797717e-03 -3.0911111142956234e-03 0.0000000000000000e+00  -2.8940333874811867e-03 -3.0478567492501904e-03 0.0000000000000000e+00  -2.6078511799088040e-03 -3.1272532962101493e-03 0.0000000000000000e+00  -2.6077033237254699e-03 -2.7003265429177562e-03 0.0000000000000000e+00  -2.6323646181792516e-03 -2.8855393735971041e-03 0.0000000000000000e+00  -2.7167709093559650e-03 -2.6522879138117239e-03 0.0000000000000000e+00  -3.0333012643123766e-03 -3.1107828871671534e-03 0.0000000000000000e+00  -2.8424103114104522e-03 -3.1431948854395027e-03 0.0000000000000000e+00  -3.0754059529909577e-03 -2.6509337936845415e-03 0.0000000000000000e+00  -2.7793943501376911e-03 -2.8855276320899396e-03 0.0000000000000000e+00  -2.7338554730044853e-03 -2.7689046485406782e-03 0.0000000000000000e+00  -2.8587022565258863e-03 -2.6993994716343148e-03 0.0000000000000000e+00  -2.6490383727155072e-03 -2.7118897341629343e-03 0.0000000000000000e+00  -2.6180419445786338e-03 -2.8338092867434541e-03 0.0000000000000000e+00  -2.7496422430644649e-03 -2.8786085953324608e-03 0.0000000000000000e+00  -2.7898225379227454e-03 -3.1225154222974281e-03 0.0000000000000000e+00  -3.0824481079737907e-03 -3.1564370269964405e-03 0.0000000000000000e+00  -2.9509323098790112e-03 -3.1364538095997457e-03 0.0000000000000000e+00  -2.9087698920167594e-03 -2.6568445800881054e-03 0.0000000000000000e+00  -2.9454265173806163e-03 -2.6864785774795568e-03 0.0000000000000000e+00  -2.8424143286691927e-03 -3.1304453669753871e-03 0.0000000000000000e+00  -2.8993799526466466e-03 -2.7943413429783017e-03 0.0000000000000000e+00  -2.6077742638948641e-03 -2.9556517024999051e-03 0.0000000000000000e+00  -2.9409502025526369e-03 -2.8855502038262534e-03 0.0000000000000000e+00  -3.0789635011623049e-03 -2.6710148759776561e-03 0.0000000000000000e+00  -3.0589777145510070e-03 -2.6730702589435116e-03 0.0000000000000000e+00  -2.6257150867740578e-03 -2.6560734103160777e-03 0.0000000000000000e+00  -2.8424066774673852e-03 -3.0147692404973439e-03 0.0000000000000000e+00  -2.9628391741376580e-03 -3.0656042831941157e-03 0.0000000000000000e+00  -2.7262716020383586e-03 -3.1095346008316121e-03 0.0000000000000000e+00  -2.6198225917391702e-03 -2.6927834180401661e-03 0.0000000000000000e+00  -3.0666011349505724e-03 -3.1348133534821652e-03 0.0000000000000000e+00  -2.7296482862961273e-03 -3.1566527766120770e-03 0.0000000000000000e+00  -2.6455521979854581e-03 -3.0873379688249494e-03 0.0000000000000000e+00  -3.1018151136030870e-03 -2.9150727615130127e-03 0.0000000000000000e+00  -2.6268799523107762e-03 -2.7720727772837300e-03 0.0000000000000000e+00  -3.0745231578444901e-03 -3.0128348481393893e-03 0.0000000000000000e+00  -2.7228887620969295e-03 -2.6733148051497836e-03 0.0000000000000000e+00  -2.7266378957618836e-03 -2.7199640347043605e-03 0.0000000000000000e+00  -2.6665844252889035e-03 -2.9226943354783109e-03 0.0000000000000000e+00  -2.8424034836871262e-03 -2.8204221193110245e-03 0.0000000000000000e+00  -2.7447288974800717e-03 -2.8709738072679905e-03 0.0000000000000000e+00  -3.1127022580597725e-03 -2.9839928268596233e-03 0.0000000000000000e+00  -3.0630450824659559e-03 -2.9993820647118475e-03 0.0000000000000000e+00  -2.8424247113645906e-03 -2.9839939248869048e-03 0.0000000000000000e+00  -3.0446741594438971e-03 -2.8017963723010195e-03 0.0000000000000000e+00  -2.9475066231357721e-03 -3.1321545818615449e-03 0.0000000000000000e+00  -3.1141102249395863e-03 -2.7306162368635890e-03 0.0000000000000000e+00  -2.6068467273182312e-03 -3.0760071335965782e-03 0.0000000000000000e+00  -2.6601295533399314e-03 -3.0378139646739747e-03 0.0000000000000000e+00  -2.6505958009142407e-03 -2.7003331260559301e-03 0.0000000000000000e+00  -2.8424137766045808e-03 -2.6739867980965434e-03 0.0000000000000000e+00  -2.9585367482522860e-03 -3.1215888645463644e-03 0.0000000000000000e+00  -2.6744125209627176e-03 -2.8170234513508600e-03 0.0000000000000000e+00  -2.9646626243926360e-03 -2.9773926061879966e-03 0.0000000000000000e+00  -2.6571361811436379e-03 -3.1339609148510303e-03 0.0000000000000000e+00  -2.6630548341651005e-03 -3.1494575596303187e-03 0.0000000000000000e+00  -2.8424103114104522e-03 -3.1431948854395027e-03 0.0000000000000000e+00  -2.8109707584247855e-03 -3.1566752077025213e-03 0.0000000000000000e+00  -3.0633514365535756e-03 -2.9810329397256686e-03 0.0000000000000000e+00  -3.1142548144356881e-03 -2.8716572347846163e-03 0.0000000000000000e+00  -3.0845346948393465e-03 -3.0155553979971479e-03 0.0000000000000000e+00  -2.6612613180559295e-03 -2.9884598193242479e-03 0.0000000000000000e+00  -3.0994126848346700e-03 -2.7111394161516596e-03 0.0000000000000000e+00  -2.8424309964046554e-03 -2.7896640458962276e-03 0.0000000000000000e+00  -2.9409502025526369e-03 -2.8855502038262534e-03 0.0000000000000000e+00  -2.7466137243323304e-03 -2.8855631733244193e-03 0.0000000000000000e+00  -2.8424247113645906e-03 -2.9839939248869048e-03 0.0000000000000000e+00  -2.8729852033480400e-03 -2.7853195823106464e-03 0.0000000000000000e+00  -2.9439975313064592e-03 -2.7082215175595939e-03 0.0000000000000000e+00  -2.7433849239798377e-03 -2.6936347637215381e-03 0.0000000000000000e+00  -2.6491536704479697e-03 -2.6477848187697497e-03 0.0000000000000000e+00  -2.7442768801864167e-03 -2.6506787733077916e-03 0.0000000000000000e+00  -3.1022719291441316e-03 -3.1566665404703198e-03 0.0000000000000000e+00  -2.8424309964046554e-03 -2.7896640458962276e-03 0.0000000000000000e+00  -2.7466137243323304e-03 -2.8855631733244193e-03 0.0000000000000000e+00  -3.1129442125752043e-03 -3.1015329403964332e-03 0.0000000000000000e+00  -2.6163417179564034e-03 -2.6742642432204694e-03 0.0000000000000000e+00  -2.6224907461181927e-03 -2.7685119345527724e-03 0.0000000000000000e+00  -2.8069061617128073e-03 -2.6594821424886757e-03 0.0000000000000000e+00  -2.9131689383526983e-03 -2.6593313262260969e-03 0.0000000000000000e+00  -2.9758938838779329e-03 -2.8514608688164781e-03 0.0000000000000000e+00  -2.9437854887521537e-03 -2.9219171722970208e-03 0.0000000000000000e+00  -2.8779105670218960e-03 -2.9840642680055715e-03 0.0000000000000000e+00  -2.8424137766045808e-03 -2.6739867980965434e-03 0.0000000000000000e+00  -2.8424175800215563e-03 -2.6612467677123793e-03 0.0000000000000000e+00  -2.9737417522660882e-03 -2.8855348450956683e-03 0.0000000000000000e+00  -2.8424034836871262e-03 -2.8204221193110245e-03 0.0000000000000000e+00  -2.6323646181792516e-03 -2.8855393735971041e-03 0.0000000000000000e+00  -2.7793943501376911e-03 -2.8855276320899396e-03 0.0000000000000000e+00  -2.6187896465759398e-03 -2.8855459477289754e-03 0.0000000000000000e+00  -2.8424143286691927e-03 -3.1304453669753871e-03 0.0000000000000000e+00  -2.8424066774673852e-03 -3.0147692404973439e-03 0.0000000000000000e+00  -2.8424175800215563e-03 -2.6612467677123793e-03 0.0000000000000000e+00  -2.6187896465759398e-03 -2.8855459477289754e-03 0.0000000000000000e+00  -2.9737417522660882e-03 -2.8855348450956683e-03 0.0000000000000000e+00  -3.1015766412606487e-03 -2.8855401936874045e-03 0.0000000000000000e+00  -3.0879903995003600e-03 -2.8855512279544818e-03 0.0000000000000000e+00  -3.1015766412606487e-03 -2.8855401936874045e-03 0.0000000000000000e+00  -3.0879903995003600e-03 -2.8855512279544818e-03 0.0000000000000000e+00  -3.0890496313494358e-03 -3.1277063045976475e-03 0.0000000000000000e+00  -3.0241290115220446e-03 -2.8676478879593949e-03 0.0000000000000000e+00  -3.0511697468732016e-03 -2.7909930610999236e-03 0.0000000000000000e+00  -2.9433218749196736e-03 -2.9863525114779102e-03 0.0000000000000000e+00  -3.0867307206311730e-03 -2.6815315420702338e-03 0.0000000000000000e+00  -3.1094618404877527e-03 -2.6480254787743015e-03 0.0000000000000000e+00  -3.1067889182031525e-03 -2.6790235717646009e-03 0.0000000000000000e+00  -2.7504494122226430e-03 -2.6903221803950676e-03 0.0000000000000000e+00  -2.6058005159422634e-03 -2.7916687529540860e-03 0.0000000000000000e+00  -3.1112168415038085e-03 -2.6702143338946027e-03 0.0000000000000000e+00  -2.9649900745047863e-03 -3.1351694690516150e-03 0.0000000000000000e+00  -2.7310656721959261e-03 -3.1467118559398701e-03 0.0000000000000000e+00  -2.8235054070343941e-03 -3.0635205699354466e-03 0.0000000000000000e+00  -3.0977169174924483e-03 -3.1383828232865916e-03 0.0000000000000000e+00  -2.6057219984696230e-03 -2.6506570361125091e-03 0.0000000000000000e+00  -2.6089195478917675e-03 -3.1299814121390638e-03 0.0000000000000000e+00  -2.6076530137020236e-03 -3.0668158261811440e-03 0.0000000000000000e+00  -3.0326929653417601e-03 -3.1347494415659722e-03 0.0000000000000000e+00  -2.6629821312722651e-03 -3.1491827894073112e-03 0.0000000000000000e+00  -3.0223755432587213e-03 -2.6537848747147531e-03 0.0000000000000000e+00  -2.6339523762521147e-03 -3.0829472797599790e-03 0.0000000000000000e+00  -2.6088508615113846e-03 -3.1543472451376862e-03 0.0000000000000000e+00  -2.9334340612494256e-03 -2.6478781007428895e-03 0.0000000000000000e+00  -3.1105546052057811e-03 -3.1554668829757737e-03 0.0000000000000000e+00  -3.0221245810019594e-03 -2.6793960318487915e-03 0.0000000000000000e+00  -3.0399128798758706e-03 -3.0629322266295476e-03 0.0000000000000000e+00  -2.9943866392072231e-03 -2.6573521660763124e-03 0.0000000000000000e+00  -2.9920499726090667e-03 -2.6718871062104315e-03 0.0000000000000000e+00  -2.6608720678341783e-03 -2.7094311683510176e-03 0.0000000000000000e+00  -2.6429973740386744e-03 -3.1557682048623014e-03 0.0000000000000000e+00  -2.8284805930425959e-03 -2.8451878408194647e-03 0.0000000000000000e+00  -3.0709274282349174e-03 -3.0608082272155362e-03 0.0000000000000000e+00  -2.9293074838487123e-03 -3.0621081138049529e-03 0.0000000000000000e+00  -3.0567014128343559e-03 -2.7246440031224238e-03 0.0000000000000000e+00  -3.1046443927697383e-03 -3.1401041366318477e-03 0.0000000000000000e+00  -2.9293068739684701e-03 -2.7442910734787277e-03 0.0000000000000000e+00  -2.7616908531999584e-03 -2.7859448781676760e-03 0.0000000000000000e+00  -3.1076258078816966e-03 -2.9966791833374098e-03 0.0000000000000000e+00  -2.6114304231854802e-03 -3.1224141603677117e-03 0.0000000000000000e+00  -3.0173857290191198e-03 -3.0509595067999577e-03 0.0000000000000000e+00  -3.0163361374319795e-03 -3.1505132848572660e-03 0.0000000000000000e+00  -3.1090322895162520e-03 -2.7955674593392720e-03 0.0000000000000000e+00  -3.1144545320289218e-03 -2.8024797291758092e-03 0.0000000000000000e+00  -2.8175773597506715e-03 -3.0847927169399261e-03 0.0000000000000000e+00  -2.7024749612523775e-03 -2.9828211778688525e-03 0.0000000000000000e+00  -2.7951569588364898e-03 -2.9555688893730960e-03 0.0000000000000000e+00  -2.6243128654164683e-03 -2.6563759139969102e-03 0.0000000000000000e+00  -3.0791624929136295e-03 -2.7727244204981396e-03 0.0000000000000000e+00  -3.1147262707221946e-03 -3.1177185896813057e-03 0.0000000000000000e+00  -2.8240935672809060e-03 -2.7567921691530137e-03 0.0000000000000000e+00  -2.8735466191189825e-03 -3.1364535016287247e-03 0.0000000000000000e+00  -3.0952015677164465e-03 -2.9359557777027599e-03 0.0000000000000000e+00  -2.9223178476692987e-03 -3.1508270747988773e-03 0.0000000000000000e+00  -2.9144554014960311e-03 -3.1546524180034894e-03 0.0000000000000000e+00  -2.6144808849841907e-03 -2.6487051271253644e-03 0.0000000000000000e+00  -2.7396937155179648e-03 -3.0943594656042159e-03 0.0000000000000000e+00  -2.6150192730675400e-03 -2.7003336163094610e-03 0.0000000000000000e+00  -2.6391923324233977e-03 -2.8204136710094710e-03 0.0000000000000000e+00  -2.7170669631711841e-03 -3.1319630648473499e-03 0.0000000000000000e+00  -3.0688008470656212e-03 -2.6493449353802473e-03 0.0000000000000000e+00  -2.8889037899326301e-03 -3.1111463440638572e-03 0.0000000000000000e+00  -2.6713136724689189e-03 -2.8038760410170520e-03 0.0000000000000000e+00  -3.0055603407781891e-03 -3.1497004204239531e-03 0.0000000000000000e+00  -2.7668088163181441e-03 -2.9515145438364656e-03 0.0000000000000000e+00  -2.7716609276698129e-03 -3.0651713042938395e-03 0.0000000000000000e+00  -2.6615657474072405e-03 -3.0016050538555013e-03 0.0000000000000000e+00  -2.7417121232730449e-03 -2.6497924339335061e-03 0.0000000000000000e+00  -2.6243472065237872e-03 -3.0026549361239162e-03 0.0000000000000000e+00  -2.6364133909529148e-03 -2.7719829297382084e-03 0.0000000000000000e+00  -3.0754122108495054e-03 -2.8628983496616135e-03 0.0000000000000000e+00  -3.0028903466013737e-03 -2.6886879221640642e-03 0.0000000000000000e+00  -2.9269728959229898e-03 -2.7012859457564813e-03 0.0000000000000000e+00  -2.9915565389959957e-03 -3.1548872574618863e-03 0.0000000000000000e+00  -2.8753687707449159e-03 -3.1527426073393173e-03 0.0000000000000000e+00  -2.7795017131311108e-03 -2.6498859567636885e-03 0.0000000000000000e+00  -2.6563692446660730e