<?xml version="1.0"?>
<VTKFile type="UnstructuredGrid"  version="0.1"  >
<UnstructuredGrid>
<Piece  NumberOfPoints="1380" NumberOfCells="2630">
<Points>
<DataArray  type="Float64"  NumberOfComponents="3"  format="ascii">-1 -1 0  1 -1 0  1 1 0  -1 1 0  0 -1 0  1 0 0  0 1 0  -1 0 0  0 0 0  -1 -0.5 0  -0.5 -1 0  -0.5 1 0  -1 0.5 0  1 -0.5 0  0.5 -1 0  1 0.5 0  0.5 1 0  0.4166666666666666 -0.4166666666666667 0  -0.4166666666666667 0.4166666666666667 0  -0.25 -0.5 0  0.5 0.25 0  -0.4861111111111112 -0.06944444444444445 0  0.0732758620689655 0.507183908045977 0  -0.625 -0.625 0  0.625 0.625 0  0.7380952380952381 -0.25 0  -0.7099116161616161 0.2105429292929293 0  -0.25 0.7380952380952381 0  0.105392156862745 -0.6348039215686275 0  0.6770833333333334 -0.6770833333333333 0  -0.6770833333333334 0.6770833333333334 0  0.3472222222222222 -0.06944444444444446 0  -0.7264957264957265 -0.3044871794871795 0  0.3141940982507127 0.7297313660835709 0  0.02049587951122483 -0.3227479397556124 0  -0.2690972222222223 0.1475694444444444 0  0.3859500089908372 -0.7274430156831472 0  -0.2228477945123298 -0.1761765495248019 0  0.2182539682539683 0.1884920634920635 0  0.75 0.375 0  -0.145442219440968 -0.7602211097204841 0  0.7088913690476191 0.0427827380952381 0  -0.75 -1 0  -1 -0.75 0  1 0.75 0  0.75 1 0  -0.7439982703698937 -0.04614153195464455 0  -0.4609235096577606 -0.3356498099556895 0  0.4063134471431929 0.4895621842856023 0  0.25 -1 0  -0.25 -1 0  -0.75 1 0  0.75 -1 0  -1 -0.25 0  -1 0.25 0  1 -0.25 0  -0.25 1 0  1 -0.75 0  -1 0.75 0  0.25 1 0  1 0.25 0  -0.4041423272138783 -0.7597141090712928 0  0.06500839607911253 0.7578103030529481 0  -0.1572801182352047 0.3838997021864289 0  -0.6528005242053915 0.4409494757946086 0  -0.4930160984848485 0.1544744318181818 0  -0.4732142857142858 0.7752976190476191 0  0.6398809523809523 -0.4538690476190476 0  0.5166054117396399 -0.2161233620965164 0  -0.002273787244753427 0.2232363985975174 0  0.1500564496765022 -0.1524955293952667 0  0.2016720420046758 -0.4410343282803009 0  -0.08495178036419618 0.6274139771124571 0  -0.8367311471133162 0.3642591720794645 0  -0.8333333333333334 -0.625 0  -0.594323836800685 -0.8231079456002283 0  -0.4466957714776065 -0.5349126855671806 0  0.8125 0.5625 0  0.78125 0.78125 0  0.5091392650016769 0.7947130883338923 0  0.125 -0.8382681931833136 0  -0.8184523809523809 -0.8184523809523809 0  -0.07781530426104531 -0.5819319697006881 0  0.5085055196703295 0.04967610411902112 0  0.2918471072074933 -0.276017202318847 0  0.5120763537765269 -0.5898771553229597 0  0.625 -0.8585349462365591 0  0.8158532234335381 -0.8158532234335381 0  -0.5198088446315396 0.5739411553684605 0  -0.8585349462365591 0.625 0  -0.8150493805516597 0.8156205699829586 0  0.8585349462365591 -0.625 0  -0.2688268348649726 0.5439331383603209 0  0.8242100426758139 -0.4436043596336612 0  0.5833756314287952 0.4479378157143976 0  0.8690476190476191 -0.125 0  -0.125 0.8690476190476191 0  -0.8692745600729823 0.125 0  0.8696725120759167 0.125 0  -0.625 0.8711516477451908 0  0.2339522463269718 0.3879558377955778 0  0.2453709502295031 0.5655822922838026 0  0.1730610651637797 0.02021709580868947 0  0.3245402594056757 -0.5644672020485209 0  -0.7291666666666666 -0.4816595441595442 0  -1 -0.375 0  -0.5811140848639904 -0.2127276307675001 0  0.673332592838314 0.2158348143233718 0  0.375 1 0  -0.5714768890989919 0.2985103444040069 0  -1 -0.125 0  -0.8453692574786325 -0.1875 0  -0.3144549134065865 -0.02408675326008025 0  -0.2898414972096258 -0.3336092734780093 0  -0.1075052092206287 -0.4224330421314983 0  -0.05043970703604117 -0.1652278959397459 0  0.6459672950297897 -0.1113415301525317 0  0.4645210271029513 0.6398480556579343 0  0.3512863754411909 0.0937979496253573 0  -0.6063160985568274 0.03891469652249891 0  -0.3428819444444445 0.8690476190476191 0  0.625 1 0  -0.1602164796159982 0.02697860906625157 0  0.04648110064133829 -0.4808416424239687 0  1 0.875 0  -0.3836102479201657 0.6484936449177356 0  -0.3776011723096096 0.263078478984336 0  -0.6024978259969829 -0.3949628096211138 0  0.125 1 0  0.2010781308272777 0.8456221018461906 0  0.2822509696388829 -0.845902544691141 0  -0.3285533674953515 -0.6289773550938936 0  0.3461306793221754 0.278777492464833 0  0.4737475672408696 -0.8508448959534423 0  0.2384632828836344 -0.7029523187242811 0  -0.004777287059791593 0.3759269695907358 0  -0.8499735021850066 -0.3912320205328522 0  0.1222536293721587 0.2963971539625205 0  -0.3769456520999688 -0.203572526805711 0  -0.2749617205755651 -0.8464290792698902 0  0.004805888512766143 -0.747174355248311 0  -0.125 -1 0  -0.06001061822252458 -0.8724007765244854 0  0.875 0.4375 0  0.854421179608893 0.271342359217786 0  0.875 1 0  -0.1499861095763589 0.2358309656934888 0  0.3381943639137225 0.8663061796405532 0  -0.7853090110442228 0.4998412775277108 0  0.7398165998560814 -0.5535192694951373 0  0.1580042122341573 -0.3100246140259917 0  -0.7291666666666667 -0.7142857142857142 0  -0.375 -1 0  0.6483368386154684 0.8514905990110488 0  -0.1295370103291928 -0.2826118305021242 0  0.07458201853700455 0.1123894386563915 0  0.6146465857036327 -0.3161203659316075 0  0.5551898493894731 -0.740296118159085 0  0.375 -1 0  0.482702798370208 -0.084133350091034 0  0.87890625 0.68359375 0  -0.05917195534525846 0.4971092425697621 0  0.1260710309213975 0.6343750312956699 0  0.8690476190476191 -0.3077066815262848 0  -0.2912010232560567 0.3668168386732139 0  -0.875 1 0  -1 0.875 0  1 -0.875 0  0.875 -1 0  -0.8689564281364567 -0.006189266075306407 0  -0.7449425635110547 0.08458938160051771 0  -0.7150266761936593 -0.1739444581417552 0  -0.5260034831318311 -0.711099823962112 0  -0.4724626808827322 -0.871722230709409 0  0.4734436795977052 0.377714794132168 0  -0.875 -1 0  -1 -0.875 0  0.6927189078571988 0.5156567235715964 0  -0.3742497615796874 -0.4296005251260107 0  -0.1969436423297711 -0.6387157229772615 0  -0.6179496409766825 -0.08933356056510935 0  -0.424405057115988 0.04452428810878029 0  -0.08479048335844169 0.1279607007132633 0  0.003830300099055113 0.8712085230656206 0  0.8748778838820267 -1.379218479898026e-05 0  -0.375 1 0  -0.625 1 0  1 0.125 0  -0.125 1 0  1 -0.375 0  1 -0.125 0  1 -0.625 0  0.625 -1 0  0.125 -1 0  -0.625 -1 0  -1 -0.625 0  -1 0.125 0  -1 0.375 0  -1 0.625 0  1 0.375 0  1 0.625 0  0.6325660748712082 0.3335187599557389 0  -0.06420945895056573 0.7549874027425891 0  -0.8769015540914771 0.2478802253893416 0  0.871875 0.871875 0  -0.6868091492840067 0.3270978624973681 0  -0.5363597469565949 0.412994850055505 0  -0.6803734992638302 0.5574295000651103 0  -0.7076253581162534 -0.8803439094224437 0  -0.8778089002295137 -0.5106896447504627 0  -0.3860184984222981 0.530566778071246 0  0.6109900617121508 0.1128453077697081 0  0.3896945134930274 -0.1915382873255086 0  0.7605656944697778 -0.06822134873122943 0  0.3576151269893478 0.5948388411612135 0  -0.5689902680792265 -0.5143596830118065 0  0.6262446286847614 -0.5735657901943212 0  0.2030558252325225 -0.5625263842513452 0  0.6123273142928579 0.7407533260723429 0  0.4016460890123554 -0.3042863223111857 0  -0.59039693199147 0.7578418819188018 0  0.7276932493917544 -0.3705808024528924 0  0.5222536818742854 -0.4713886230400014 0  -0.5101986527137737 0.8848365765607674 0  0.510560172809238 0.5356013299918891 0  -0.3603569195756083 0.75823710606415 0  0.1967279277813232 0.728226870058472 0  -0.6086880986371127 0.1545624071548516 0  -0.38105366729386 0.1511189987807864 0  -0.2944659463671584 -0.7359061804869591 0  0.5060729154966499 -0.3475227845833823 0  -0.09281616240412746 -0.06197858250969457 0  0.7649739583333334 0.6673177083333334 0  0.7628906249999999 0.890234375 0  -0.2666864184909611 0.2585504071132311 0  0.3635064892129658 0.3878003602709461 0  -0.2339409722222222 0.8901937905844155 0  -0.1718792125974916 -0.8957733325456778 0  0.1001768566329531 0.4023510017391879 0  0.3120260172693757 -0.4540546875576884 0  0.7804062804433681 0.1896628610854537 0  0.4087715451998049 0.187961780041608 0  -0.1584963477271457 0.5451611892421655 0  -0.8926817849258324 0.463022006336401 0  0.2338091473445219 -0.07576267331277289 0  0.08171112182813692 -0.2349087687359925 0  0.04635385178956847 -0.1044635073718474 0  -0.4377391632114205 -0.6448874471423088 0  -0.1907678351227189 0.6480215912813945 0  0.300605946475244 0.4741444604171038 0  -0.2145033720757486 -0.06751709909419711 0  0.6069191921170397 -0.005492331448357812 0  0.0214718770761248 0.6032397936031719 0  0.5476675683364878 0.8992752415326501 0  0.4387475014316537 0.9093708953002239 0  -0.4932997685306436 -0.4381009159993523 0  0.2515197695339056 -0.1791673369138964 0  -0.7291666666666667 -0.6088789682539681 0  -0.9166666666666667 -0.6875 0  0.620579540363709 -0.2122431523583302 0  -0.484950136419973 0.6719440339397442 0  0.2857044415400258 0.0137589173127316 0  -0.8945708364098356 -0.288306105327986 0  0.4043102720140535 0.7842914560451557 0  0.04123256238752064 -0.9026968245801402 0  0.2003676884403109 -0.9091888601740487 0  0.1068775558538842 -0.7373377130403223 0  -0.4804566783514427 -0.1763307203045643 0  0.108286342087769 -0.3993789328997278 0  -0.191883080105361 -0.3640821726430649 0  -0.07025064492006244 0.2984876656890053 0  -0.7039324641409584 0.788312126296613 0  -0.7311286585775438 0.8932502354831682 0  0.5171409396884947 0.1503852691889257 0  0.4229392823658633 -0.003216522184234835 0  -0.5621736087218259 -0.919558629836806 0  -0.626474064879544 -0.7266572613636506 0  0.2446828746617422 0.2867616783302419 0  0.1759429608742923 0.4776611759306416 0  -0.3468240303741654 -0.5260416435617549 0  -0.7465808808425306 0.4069574477998361 0  -0.7819962170660292 0.2802441065650652 0  -0.3742623214119594 -0.8547800509641984 0  0.1014498009713561 0.8506721983266377 0  0.4285217620918213 -0.5230190595570253 0  0.4091738370487775 -0.6256346204225141 0  0.78125 0.46875 0  0.90625 0.53125 0  -0.4791801348852565 0.2553992655702126 0  0.7843318610782772 -0.7086046956885941 0  0.8909728264971901 -0.7355183796514634 0  0.7041908166528879 -0.7830649143180282 0  0.7311821352
[...]
<PointData  Vectors="f_22"> 
<DataArray  type="Float64"  Name="f_22"  NumberOfComponents="3" format="ascii">-2.8538587067560694e-03 -2.8962475096712338e-03 0.0000000000000000e+00  -2.8538587067560694e-03 -2.8962475096712338e-03 0.0000000000000000e+00  -2.8538587067560694e-03 -2.8962475096712338e-03 0.0000000000000000e+00  -2.8538587067560694e-03 -2.8962475096712338e-03 0.0000000000000000e+00  -2.8538558211679880e-03 -2.9081821372598776e-03 0.0000000000000000e+00  -2.8664941843895030e-03 -2.8962443750921831e-03 0.0000000000000000e+00  -2.8538558211679880e-03 -2.9081821372598776e-03 0.0000000000000000e+00  -2.8664941843895030e-03 -2.8962443750921831e-03 0.0000000000000000e+00  -2.8664947413551338e-03 -2.9081865476836858e-03 0.0000000000000000e+00  -2.7821078423458175e-03 -2.8962454996093461e-03 0.0000000000000000e+00  -2.8538581172518752e-03 -2.8241443754143851e-03 0.0000000000000000e+00  -2.8538581172518752e-03 -2.8241443754143851e-03 0.0000000000000000e+00  -2.9382460827050154e-03 -2.8962441221352425e-03 0.0000000000000000e+00  -2.7821078423458175e-03 -2.8962454996093461e-03 0.0000000000000000e+00  -2.8538557477458307e-03 -2.9802904979206110e-03 0.0000000000000000e+00  -2.9382460827050154e-03 -2.8962441221352425e-03 0.0000000000000000e+00  -2.8538557477458307e-03 -2.9802904979206110e-03 0.0000000000000000e+00  -2.7864019419550656e-03 -2.9791728646963414e-03 0.0000000000000000e+00  -2.9372179108186295e-03 -2.8283472152726519e-03 0.0000000000000000e+00  -2.7821102768781449e-03 -2.8512304401795670e-03 0.0000000000000000e+00  -2.9198470353371956e-03 -2.9802902680558180e-03 0.0000000000000000e+00  -2.8494486019843093e-03 -2.8244787514422626e-03 0.0000000000000000e+00  -2.9380819217037692e-03 -2.9258441038454101e-03 0.0000000000000000e+00  -2.7856357979105096e-03 -2.8278055889619813e-03 0.0000000000000000e+00  -2.9298844317138012e-03 -2.9720621757966174e-03 0.0000000000000000e+00  -2.8094395641154466e-03 -2.9553836787984344e-03 0.0000000000000000e+00  -2.9131157027823444e-03 -2.8368561391691315e-03 0.0000000000000000e+00  -2.9131036386406115e-03 -2.8512299042305878e-03 0.0000000000000000e+00  -2.7864082429006785e-03 -2.9332390156813011e-03 0.0000000000000000e+00  -2.7905457171309269e-03 -2.9653610542234236e-03 0.0000000000000000e+00  -2.9231342463024688e-03 -2.8327665267233000e-03 0.0000000000000000e+00  -2.8494499004350746e-03 -2.9742254535754208e-03 0.0000000000000000e+00  -2.8000179890377984e-03 -2.8391922310545886e-03 0.0000000000000000e+00  -2.9146050316776356e-03 -2.9706528194147490e-03 0.0000000000000000e+00  -2.7972408024222605e-03 -2.9131975919152132e-03 0.0000000000000000e+00  -2.9007387213524417e-03 -2.8477602995540989e-03 0.0000000000000000e+00  -2.7970628358613050e-03 -2.9774240223893731e-03 0.0000000000000000e+00  -2.8245157129701617e-03 -2.8564807114741866e-03 0.0000000000000000e+00  -2.9089953699195925e-03 -2.9562733392921466e-03 0.0000000000000000e+00  -2.9347220306847359e-03 -2.9532022565528743e-03 0.0000000000000000e+00  -2.8021675227288584e-03 -2.8731299702799240e-03 0.0000000000000000e+00  -2.8768979479591545e-03 -2.9604265884328540e-03 0.0000000000000000e+00  -2.8538572977992475e-03 -2.8427938754088723e-03 0.0000000000000000e+00  -2.8005093334884596e-03 -2.8962471880546303e-03 0.0000000000000000e+00  -2.9109099345473086e-03 -2.8962449021845229e-03 0.0000000000000000e+00  -2.8538579260008168e-03 -2.9531989574300087e-03 0.0000000000000000e+00  -2.8551500115764497e-03 -2.8418378027406342e-03 0.0000000000000000e+00  -2.7954041437094732e-03 -2.8254634032574629e-03 0.0000000000000000e+00  -2.9384116059937440e-03 -2.9786659161239251e-03 0.0000000000000000e+00  -2.8538559778071553e-03 -2.9616439225891673e-03 0.0000000000000000e+00  -2.8538559063370104e-03 -2.8512321429796524e-03 0.0000000000000000e+00  -2.8538572977992475e-03 -2.8427938754088723e-03 0.0000000000000000e+00  -2.8538579260008168e-03 -2.9531989574300087e-03 0.0000000000000000e+00  -2.8094394138146045e-03 -2.8962456982296342e-03 0.0000000000000000e+00  -2.9198461451048589e-03 -2.8962444237092613e-03 0.0000000000000000e+00  -2.8094394138146045e-03 -2.8962456982296342e-03 0.0000000000000000e+00  -2.8538559063370104e-03 -2.8512321429796524e-03 0.0000000000000000e+00  -2.8005093334884596e-03 -2.8962471880546303e-03 0.0000000000000000e+00  -2.9109099345473086e-03 -2.8962449021845229e-03 0.0000000000000000e+00  -2.8538559778071553e-03 -2.9616439225891673e-03 0.0000000000000000e+00  -2.9198461451048589e-03 -2.8962444237092613e-03 0.0000000000000000e+00  -2.8020852336588047e-03 -2.8294284569912445e-03 0.0000000000000000e+00  -2.9094282797909182e-03 -2.9238953582084609e-03 0.0000000000000000e+00  -2.9353629934494264e-03 -2.8704455678608561e-03 0.0000000000000000e+00  -2.9380696744945958e-03 -2.8302104394549235e-03 0.0000000000000000e+00  -2.9021827111219041e-03 -2.8242926114703110e-03 0.0000000000000000e+00  -2.9060099537991900e-03 -2.8249215563837366e-03 0.0000000000000000e+00  -2.7838369215352878e-03 -2.9703275854724063e-03 0.0000000000000000e+00  -2.8160665875694006e-03 -2.9798699268792153e-03 0.0000000000000000e+00  -2.9153770598734576e-03 -2.9076306441675856e-03 0.0000000000000000e+00  -2.8297978981368615e-03 -2.9429932731061806e-03 0.0000000000000000e+00  -2.7846065260344628e-03 -2.9532490757982421e-03 0.0000000000000000e+00  -2.9296077571879684e-03 -2.8873824043850792e-03 0.0000000000000000e+00  -2.9338664118637547e-03 -2.8587003254201904e-03 0.0000000000000000e+00  -2.7856349903963716e-03 -2.8580135544437144e-03 0.0000000000000000e+00  -2.8136260384237105e-03 -2.8258063558358961e-03 0.0000000000000000e+00  -2.7818882506668546e-03 -2.8262331024933736e-03 0.0000000000000000e+00  -2.9355139306448154e-03 -2.9406240534093943e-03 0.0000000000000000e+00  -2.9048166795280416e-03 -2.9471275126967786e-03 0.0000000000000000e+00  -2.9020561162535247e-03 -2.9800868870269856e-03 0.0000000000000000e+00  -2.8166742024554768e-03 -2.9376088122691248e-03 0.0000000000000000e+00  -2.8127087824817171e-03 -2.8550427851750464e-03 0.0000000000000000e+00  -2.7830727800661611e-03 -2.8891119388581138e-03 0.0000000000000000e+00  -2.8785544919903146e-03 -2.9801018294427634e-03 0.0000000000000000e+00  -2.8047383534487071e-03 -2.9678139867148766e-03 0.0000000000000000e+00  -2.7834383013660442e-03 -2.9800047060112391e-03 0.0000000000000000e+00  -2.8209094823543868e-03 -2.9720604510194868e-03 0.0000000000000000e+00  -2.8122026205577738e-03 -2.9399049787534378e-03 0.0000000000000000e+00  -2.9346898947434081e-03 -2.8239232273044364e-03 0.0000000000000000e+00  -2.9298840093908221e-03 -2.8632615948970992e-03 0.0000000000000000e+00  -2.8976199596814360e-03 -2.8543774330446322e-03 0.0000000000000000e+00  -2.7856339979548447e-03 -2.9303908793498600e-03 0.0000000000000000e+00  -2.9366301773025992e-03 -2.8478077454406215e-03 0.0000000000000000e+00  -2.7844424114361376e-03 -2.9380879840135632e-03 0.0000000000000000e+00  -2.9382337202966428e-03 -2.9760803738341805e-03 0.0000000000000000e+00  -2.8361351240364027e-03 -2.9279614358901111e-03 0.0000000000000000e+00  -2.8855993744565400e-03 -2.8778518681538538e-03 0.0000000000000000e+00  -2.8958875012391611e-03 -2.8655707150342961e-03 0.0000000000000000e+00  -2.8958880510710880e-03 -2.9278159643015239e-03 0.0000000000000000e+00  -2.8851121095977827e-03 -2.8278046209818013e-03 0.0000000000000000e+00  -2.9356384021057740e-03 -2.9590001781144627e-03 0.0000000000000000e+00  -2.9353012873476960e-03 -2.9608991012194147e-03 0.0000000000000000e+00  -2.8714397886276380e-03 -2.9477160243028384e-03 0.0000000000000000e+00  -2.7824316977257276e-03 -2.9718510586890404e-03 0.0000000000000000e+00  -2.7826032104110617e-03 -2.8395851726428765e-03 0.0000000000000000e+00  -2.7904677050438012e-03 -2.8962448830377003e-03 0.0000000000000000e+00  -2.8167605225210240e-03 -2.8251610486804066e-03 0.0000000000000000e+00  -2.9140695765928876e-03 -2.9659032264597418e-03 0.0000000000000000e+00  -2.8538560007127451e-03 -2.9766319495288722e-03 0.0000000000000000e+00  -2.9268565902873184e-03 -2.8247731578471447e-03 0.0000000000000000e+00  -2.8361366987955977e-03 -2.8962428974885464e-03 0.0000000000000000e+00  -2.8220555773144180e-03 -2.8604830921641908e-03 0.0000000000000000e+00  -2.8605776277292536e-03 -2.8403237291783965e-03 0.0000000000000000e+00  -2.7956899718563277e-03 -2.8442163315459288e-03 0.0000000000000000e+00  -2.7859401815250474e-03 -2.8819814798564246e-03 0.0000000000000000e+00  -2.8269369372467702e-03 -2.8957910955753684e-03 0.0000000000000000e+00  -2.8393553772425311e-03 -2.9695765903473398e-03 0.0000000000000000e+00  -2.9281425018419754e-03 -2.9804702141537922e-03 0.0000000000000000e+00  -2.8888977953148483e-03 -2.9746133963493111e-03 0.0000000000000000e+00  -2.8759691902426813e-03 -2.8265003008155396e-03 0.0000000000000000e+00  -2.8856002396605860e-03 -2.8362905443589108e-03 0.0000000000000000e+00  -2.8538552058143475e-03 -2.9720620279325457e-03 0.0000000000000000e+00  -2.8730823882245488e-03 -2.8697887007415827e-03 0.0000000000000000e+00  -2.7826298115688941e-03 -2.9194829207546198e-03 0.0000000000000000e+00  -2.8842125822580470e-03 -2.8962438031181442e-03 0.0000000000000000e+00  -2.9270563106601551e-03 -2.8314380646136217e-03 0.0000000000000000e+00  -2.9218784126397025e-03 -2.8320831612934109e-03 0.0000000000000000e+00  -2.7883694137180487e-03 -2.8262693404472604e-03 0.0000000000000000e+00  -2.8538562016616653e-03 -2.9376065466577539e-03 0.0000000000000000e+00  -2.8909792014156091e-03 -2.9531357543043381e-03 0.0000000000000000e+00  -2.8182510598300120e-03 -2.9664952448541426e-03 0.0000000000000000e+00  -2.7859412267583366e-03 -2.8382583569597089e-03 0.0000000000000000e+00  -2.9241860440150850e-03 -2.9741205554255825e-03 0.0000000000000000e+00  -2.8192821749009641e-03 -2.9805157671570562e-03 0.0000000000000000e+00  -2.7936839530157713e-03 -2.9597556542209744e-03 0.0000000000000000e+00  -2.9347904028844112e-03 -2.9070143482480188e-03 0.0000000000000000e+00  -2.7887390512976078e-03 -2.8614496221149792e-03 0.0000000000000000e+00  -2.9265847464004916e-03 -2.9370089578911658e-03 0.0000000000000000e+00  -2.8186552543769828e-03 -2.8321566675590382e-03 0.0000000000000000e+00  -2.8183602690696110e-03 -2.8467331909751755e-03 0.0000000000000000e+00  -2.8000581886393318e-03 -2.9093611470356645e-03 0.0000000000000000e+00  -2.8538552079645911e-03 -2.8778536745134053e-03 0.0000000000000000e+00  -2.8238940806613361e-03 -2.8934451185329679e-03 0.0000000000000000e+00  -2.9379789685460792e-03 -2.9265773595746562e-03 0.0000000000000000e+00  -2.9231115365448727e-03 -2.9313328052324606e-03 0.0000000000000000e+00  -2.8538567430222567e-03 -2.9265751307765158e-03 0.0000000000000000e+00  -2.9175306619722298e-03 -2.8720947623831240e-03 0.0000000000000000e+00  -2.8862400299782130e-03 -2.9733248563946512e-03 0.0000000000000000e+00  -2.9382473068314259e-03 -2.8487989853562550e-03 0.0000000000000000e+00  -2.7821509591387105e-03 -2.9550728751137137e-03 0.0000000000000000e+00  -2.7991565213090035e-03 -2.9446502720348188e-03 0.0000000000000000e+00  -2.7952040354460809e-03 -2.8395861859923190e-03 0.0000000000000000e+00  -2.8538570161184391e-03 -2.8323717923457925e-03 0.0000000000000000e+00  -2.8896458739015615e-03 -2.9692814910633890e-03 0.0000000000000000e+00  -2.8036046550897796e-03 -2.8767982648032434e-03 0.0000000000000000e+00  -2.8931024434378861e-03 -2.9261500615968281e-03 0.0000000000000000e+00  -2.7982254922926633e-03 -2.9731725811378111e-03 0.0000000000000000e+00  -2.7989868974665033e-03 -2.9780880970266019e-03 0.0000000000000000e+00  -2.8538560007127451e-03 -2.9766319495288722e-03 0.0000000000000000e+00  -2.8458779198922016e-03 -2.9804979989265764e-03 0.0000000000000000e+00  -2.9221687702121078e-03 -2.9256613767317165e-03 0.0000000000000000e+00  -2.9382977194643530e-03 -2.8936531172607379e-03 0.0000000000000000e+00  -2.9288000491140055e-03 -2.9378443624260542e-03 0.0000000000000000e+00  -2.7995122163988169e-03 -2.9279602947781128e-03 0.0000000000000000e+00  -2.9340768769480796e-03 -2.8439863681273079e-03 0.0000000000000000e+00  -2.8538586725551452e-03 -2.8668275171570812e-03 0.0000000000000000e+00  -2.8842125822580470e-03 -2.8962438031181442e-03 0.0000000000000000e+00  -2.8244661264924713e-03 -2.8962478112974149e-03 0.0000000000000000e+00  -2.8538567430222567e-03 -2.9265751307765158e-03 0.0000000000000000e+00  -2.8649752296642009e-03 -2.8655040914535739e-03 0.0000000000000000e+00  -2.8867769585370759e-03 -2.8419864424607259e-03 0.0000000000000000e+00  -2.8250038893062801e-03 -2.8375590825010029e-03 0.0000000000000000e+00  -2.7947677768935118e-03 -2.8239195161201013e-03 0.0000000000000000e+00  -2.8237524481806949e-03 -2.8249529263663941e-03 0.0000000000000000e+00  -2.9349243828940413e-03 -2.9805168662787392e-03 0.0000000000000000e+00  -2.8538586725551452e-03 -2.8668275171570812e-03 0.0000000000000000e+00  -2.8244661264924713e-03 -2.8962478112974149e-03 0.0000000000000000e+00  -2.9378415157681591e-03 -2.9630139102060156e-03 0.0000000000000000e+00  -2.7853971812816457e-03 -2.8324549762388058e-03 0.0000000000000000e+00  -2.7867387974477506e-03 -2.8617978219402803e-03 0.0000000000000000e+00  -2.8446241613026830e-03 -2.8272812235620565e-03 0.0000000000000000e+00  -2.8773182205229552e-03 -2.8277394444778284e-03 0.0000000000000000e+00  -2.8965404368142939e-03 -2.8874255022963333e-03 0.0000000000000000e+00  -2.8850931876294411e-03 -2.9091230465873620e-03 0.0000000000000000e+00  -2.8664896729905937e-03 -2.9266029029191344e-03 0.0000000000000000e+00  -2.8538570161184391e-03 -2.8323717923457925e-03 0.0000000000000000e+00  -2.8538561601064607e-03 -2.8278047092158472e-03 0.0000000000000000e+00  -2.8958864758017928e-03 -2.8962450890279035e-03 0.0000000000000000e+00  -2.8538552079645911e-03 -2.8778536745134053e-03 0.0000000000000000e+00  -2.7904677050438012e-03 -2.8962448830377003e-03 0.0000000000000000e+00  -2.8361366987955977e-03 -2.8962428974885464e-03 0.0000000000000000e+00  -2.7856345487695211e-03 -2.8962444605768025e-03 0.0000000000000000e+00  -2.8538552058143475e-03 -2.9720620279325457e-03 0.0000000000000000e+00  -2.8538562016616653e-03 -2.9376065466577539e-03 0.0000000000000000e+00  -2.8538561601064607e-03 -2.8278047092158472e-03 0.0000000000000000e+00  -2.7856345487695211e-03 -2.8962444605768025e-03 0.0000000000000000e+00  -2.8958864758017928e-03 -2.8962450890279035e-03 0.0000000000000000e+00  -2.9347214086639780e-03 -2.8962451302498703e-03 0.0000000000000000e+00  -2.9298848527722484e-03 -2.8962460815820179e-03 0.0000000000000000e+00  -2.9347214086639780e-03 -2.8962451302498703e-03 0.0000000000000000e+00  -2.9298848527722484e-03 -2.8962460815820179e-03 0.0000000000000000e+00  -2.9309674992494170e-03 -2.9712011283023138e-03 0.0000000000000000e+00  -2.9099666385790342e-03 -2.8924201127112255e-03 0.0000000000000000e+00  -2.9195086430050263e-03 -2.8672403851923590e-03 0.0000000000000000e+00  -2.8849446655273728e-03 -2.9273033438321039e-03 0.0000000000000000e+00  -2.9302742659111231e-03 -2.8339009390357835e-03 0.0000000000000000e+00  -2.9370507080000163e-03 -2.8239710368189123e-03 0.0000000000000000e+00  -2.9358423984386837e-03 -2.8331433058622324e-03 0.0000000000000000e+00  -2.8256399319225626e-03 -2.8365528426704694e-03 0.0000000000000000e+00  -2.7819409159899797e-03 -2.8674429480244493e-03 0.0000000000000000e+00  -2.9372760783663407e-03 -2.8311857595347887e-03 0.0000000000000000e+00  -2.8932050760595109e-03 -2.9735505645588321e-03 0.0000000000000000e+00  -2.8211912094643528e-03 -2.9776760586467995e-03 0.0000000000000000e+00  -2.8497435570409633e-03 -2.9511956164664233e-03 0.0000000000000000e+00  -2.9329503132796688e-03 -2.9751915902707453e-03 0.0000000000000000e+00  -2.7819049819973788e-03 -2.8246892907503813e-03 0.0000000000000000e+00  -2.7827358802295140e-03 -2.9719198822240542e-03 0.0000000000000000e+00  -2.7823752181320967e-03 -2.9535052975859502e-03 0.0000000000000000e+00  -2.9126215828304057e-03 -2.9734153413620845e-03 0.0000000000000000e+00  -2.8000481676442039e-03 -2.9784066336269168e-03 0.0000000000000000e+00  -2.9094218312340258e-03 -2.8255996768150791e-03 0.0000000000000000e+00  -2.7909685061442879e-03 -2.9572315943140765e-03 0.0000000000000000e+00  -2.7829890552900057e-03 -2.9796793950281099e-03 0.0000000000000000e+00  -2.8818960836500904e-03 -2.8239932279496066e-03 0.0000000000000000e+00  -2.9370527056850788e-03 -2.9800493460534257e-03 0.0000000000000000e+00  -2.9093451130823666e-03 -2.8340717216482950e-03 0.0000000000000000e+00  -2.9148691360114218e-03 -2.9523199202859804e-03 0.0000000000000000e+00  -2.9021990604462260e-03 -2.8266512088503930e-03 0.0000000000000000e+00  -2.9014832931784948e-03 -2.8317100024039970e-03 0.0000000000000000e+00  -2.7983211761590790e-03 -2.8434531603608961e-03 0.0000000000000000e+00  -2.7938053470709734e-03 -2.9801588952528702e-03 0.0000000000000000e+00  -2.8512716217278266e-03 -2.8854904393723138e-03 0.0000000000000000e+00  -2.9245348428956533e-03 -2.9503482024421219e-03 0.0000000000000000e+00  -2.8806182260281022e-03 -2.9507515105759653e-03 0.0000000000000000e+00  -2.9211865650041881e-03 -2.8481873738236099e-03 0.0000000000000000e+00  -2.9356282956397449e-03 -2.9757057936310744e-03 0.0000000000000000e+00  -2.8806235365216176e-03 -2.8542926261530118e-03 0.0000000000000000e+00  -2.8290857653242652e-03 -2.8671967033005105e-03 0.0000000000000000e+00  -2.9365091027400239e-03 -2.9320627179892931e-03 0.0000000000000000e+00  -2.7838277812840253e-03 -2.9703905868683923e-03 0.0000000000000000e+00  -2.9092197410151496e-03 -2.9472971335870232e-03 0.0000000000000000e+00  -2.9088967003546027e-03 -2.9787940768260012e-03 0.0000000000000000e+00  -2.9365640978665907e-03 -2.8701719485310349e-03 0.0000000000000000e+00  -2.9384516378202132e-03 -2.8707556971585549e-03 0.0000000000000000e+00  -2.8479126805336830e-03 -2.9589768825585175e-03 0.0000000000000000e+00  -2.8123265977037172e-03 -2.9278156710828705e-03 0.0000000000000000e+00  -2.8409973479353529e-03 -2.9194546222423988e-03 0.0000000000000000e+00  -2.7872820471471619e-03 -2.8267946005070300e-03 0.0000000000000000e+00  -2.9271180690969931e-03 -2.8631049402428727e-03 0.0000000000000000e+00  -2.9385013238747023e-03 -2.9689678896538687e-03 0.0000000000000000e+00  -2.8499200571263472e-03 -2.8581639223506402e-03 0.0000000000000000e+00  -2.8651461581314761e-03 -2.9739564871877435e-03 0.0000000000000000e+00  -2.9321584736438449e-03 -2.9134351269286519e-03 0.0000000000000000e+00  -2.8784626726485749e-03 -2.9785259920288663e-03 0.0000000000000000e+00  -2.8760383638329859e-03 -2.9799912974275526e-03 0.0000000000000000e+00  -2.7848026155483582e-03 -2.8242889646277751e-03 0.0000000000000000e+00  -2.8238609439136561e-03 -2.9618866769240393e-03 0.0000000000000000e+00  -2.7845141385312334e-03 -2.8395866233043507e-03 0.0000000000000000e+00  -2.7917574344336967e-03 -2.8762467768451033e-03 0.0000000000000000e+00  -2.8168560323364802e-03 -2.9725433165579363e-03 0.0000000000000000e+00  -2.9238763309280876e-03 -2.8245127626924929e-03 0.0000000000000000e+00  -2.8698642554610440e-03 -2.9669789250904234e-03 0.0000000000000000e+00  -2.8026432784313982e-03 -2.8711828359297099e-03 0.0000000000000000e+00  -2.9042017591486670e-03 -2.9785568191377605e-03 0.0000000000000000e+00  -2.8306545583420980e-03 -2.9182160689400095e-03 0.0000000000000000e+00  -2.8321413176965538e-03 -2.9530050206874356e-03 0.0000000000000000e+00  -2.7985351806803396e-03 -2.9335758058425731e-03 0.0000000000000000e+00  -2.8244843096935147e-03 -2.8246584059821332e-03 0.0000000000000000e+00  -2.7879402452347596e-03 -2.9338945194920408e-03 0.0000000000000000e+00  -2.7917358839087631e-03 -2.8628705313178291e-03 0.0000000000000000e+00  -2.9268549170152099e-03 -2.8909524521448676e-03 0.0000000000000000e+00  -2.9033762658375122e-03 -2.8360608962136329e-03 0.0000000000000000e+00  -2.8798998391335417e-03 -2.8398769112415079e-03 0.0000000000000000e+00  -2.9013308351621882e-03 -2.9798552337223197e-03 0.0000000000000000e+00  -2.8657049076111366e-03 -2.9794445226790445e-03 0.0000000000000000e+00  -2.8345402139831537e-03 -2.8244713428718575e-03 0.0000000000000000e+00  -2.7969533570878008e