<?xml version="1.0"?>
<VTKFile type="UnstructuredGrid"  version="0.1"  >
<UnstructuredGrid>
<Piece  NumberOfPoints="1380" NumberOfCells="2630">
<Points>
<DataArray  type="Float64"  NumberOfComponents="3"  format="ascii">-1 -1 0  1 -1 0  1 1 0  -1 1 0  0 -1 0  1 0 0  0 1 0  -1 0 0  0 0 0  -1 -0.5 0  -0.5 -1 0  -0.5 1 0  -1 0.5 0  1 -0.5 0  0.5 -1 0  1 0.5 0  0.5 1 0  0.4166666666666666 -0.4166666666666667 0  -0.4166666666666667 0.4166666666666667 0  -0.25 -0.5 0  0.5 0.25 0  -0.4861111111111112 -0.06944444444444445 0  0.0732758620689655 0.507183908045977 0  -0.625 -0.625 0  0.625 0.625 0  0.7380952380952381 -0.25 0  -0.7099116161616161 0.2105429292929293 0  -0.25 0.7380952380952381 0  0.105392156862745 -0.6348039215686275 0  0.6770833333333334 -0.6770833333333333 0  -0.6770833333333334 0.6770833333333334 0  0.3472222222222222 -0.06944444444444446 0  -0.7264957264957265 -0.3044871794871795 0  0.3141940982507127 0.7297313660835709 0  0.02049587951122483 -0.3227479397556124 0  -0.2690972222222223 0.1475694444444444 0  0.3859500089908372 -0.7274430156831472 0  -0.2228477945123298 -0.1761765495248019 0  0.2182539682539683 0.1884920634920635 0  0.75 0.375 0  -0.145442219440968 -0.7602211097204841 0  0.7088913690476191 0.0427827380952381 0  -0.75 -1 0  -1 -0.75 0  1 0.75 0  0.75 1 0  -0.7439982703698937 -0.04614153195464455 0  -0.4609235096577606 -0.3356498099556895 0  0.4063134471431929 0.4895621842856023 0  0.25 -1 0  -0.25 -1 0  -0.75 1 0  0.75 -1 0  -1 -0.25 0  -1 0.25 0  1 -0.25 0  -0.25 1 0  1 -0.75 0  -1 0.75 0  0.25 1 0  1 0.25 0  -0.4041423272138783 -0.7597141090712928 0  0.06500839607911253 0.7578103030529481 0  -0.1572801182352047 0.3838997021864289 0  -0.6528005242053915 0.4409494757946086 0  -0.4930160984848485 0.1544744318181818 0  -0.4732142857142858 0.7752976190476191 0  0.6398809523809523 -0.4538690476190476 0  0.5166054117396399 -0.2161233620965164 0  -0.002273787244753427 0.2232363985975174 0  0.1500564496765022 -0.1524955293952667 0  0.2016720420046758 -0.4410343282803009 0  -0.08495178036419618 0.6274139771124571 0  -0.8367311471133162 0.3642591720794645 0  -0.8333333333333334 -0.625 0  -0.594323836800685 -0.8231079456002283 0  -0.4466957714776065 -0.5349126855671806 0  0.8125 0.5625 0  0.78125 0.78125 0  0.5091392650016769 0.7947130883338923 0  0.125 -0.8382681931833136 0  -0.8184523809523809 -0.8184523809523809 0  -0.07781530426104531 -0.5819319697006881 0  0.5085055196703295 0.04967610411902112 0  0.2918471072074933 -0.276017202318847 0  0.5120763537765269 -0.5898771553229597 0  0.625 -0.8585349462365591 0  0.8158532234335381 -0.8158532234335381 0  -0.5198088446315396 0.5739411553684605 0  -0.8585349462365591 0.625 0  -0.8150493805516597 0.8156205699829586 0  0.8585349462365591 -0.625 0  -0.2688268348649726 0.5439331383603209 0  0.8242100426758139 -0.4436043596336612 0  0.5833756314287952 0.4479378157143976 0  0.8690476190476191 -0.125 0  -0.125 0.8690476190476191 0  -0.8692745600729823 0.125 0  0.8696725120759167 0.125 0  -0.625 0.8711516477451908 0  0.2339522463269718 0.3879558377955778 0  0.2453709502295031 0.5655822922838026 0  0.1730610651637797 0.02021709580868947 0  0.3245402594056757 -0.5644672020485209 0  -0.7291666666666666 -0.4816595441595442 0  -1 -0.375 0  -0.5811140848639904 -0.2127276307675001 0  0.673332592838314 0.2158348143233718 0  0.375 1 0  -0.5714768890989919 0.2985103444040069 0  -1 -0.125 0  -0.8453692574786325 -0.1875 0  -0.3144549134065865 -0.02408675326008025 0  -0.2898414972096258 -0.3336092734780093 0  -0.1075052092206287 -0.4224330421314983 0  -0.05043970703604117 -0.1652278959397459 0  0.6459672950297897 -0.1113415301525317 0  0.4645210271029513 0.6398480556579343 0  0.3512863754411909 0.0937979496253573 0  -0.6063160985568274 0.03891469652249891 0  -0.3428819444444445 0.8690476190476191 0  0.625 1 0  -0.1602164796159982 0.02697860906625157 0  0.04648110064133829 -0.4808416424239687 0  1 0.875 0  -0.3836102479201657 0.6484936449177356 0  -0.3776011723096096 0.263078478984336 0  -0.6024978259969829 -0.3949628096211138 0  0.125 1 0  0.2010781308272777 0.8456221018461906 0  0.2822509696388829 -0.845902544691141 0  -0.3285533674953515 -0.6289773550938936 0  0.3461306793221754 0.278777492464833 0  0.4737475672408696 -0.8508448959534423 0  0.2384632828836344 -0.7029523187242811 0  -0.004777287059791593 0.3759269695907358 0  -0.8499735021850066 -0.3912320205328522 0  0.1222536293721587 0.2963971539625205 0  -0.3769456520999688 -0.203572526805711 0  -0.2749617205755651 -0.8464290792698902 0  0.004805888512766143 -0.747174355248311 0  -0.125 -1 0  -0.06001061822252458 -0.8724007765244854 0  0.875 0.4375 0  0.854421179608893 0.271342359217786 0  0.875 1 0  -0.1499861095763589 0.2358309656934888 0  0.3381943639137225 0.8663061796405532 0  -0.7853090110442228 0.4998412775277108 0  0.7398165998560814 -0.5535192694951373 0  0.1580042122341573 -0.3100246140259917 0  -0.7291666666666667 -0.7142857142857142 0  -0.375 -1 0  0.6483368386154684 0.8514905990110488 0  -0.1295370103291928 -0.2826118305021242 0  0.07458201853700455 0.1123894386563915 0  0.6146465857036327 -0.3161203659316075 0  0.5551898493894731 -0.740296118159085 0  0.375 -1 0  0.482702798370208 -0.084133350091034 0  0.87890625 0.68359375 0  -0.05917195534525846 0.4971092425697621 0  0.1260710309213975 0.6343750312956699 0  0.8690476190476191 -0.3077066815262848 0  -0.2912010232560567 0.3668168386732139 0  -0.875 1 0  -1 0.875 0  1 -0.875 0  0.875 -1 0  -0.8689564281364567 -0.006189266075306407 0  -0.7449425635110547 0.08458938160051771 0  -0.7150266761936593 -0.1739444581417552 0  -0.5260034831318311 -0.711099823962112 0  -0.4724626808827322 -0.871722230709409 0  0.4734436795977052 0.377714794132168 0  -0.875 -1 0  -1 -0.875 0  0.6927189078571988 0.5156567235715964 0  -0.3742497615796874 -0.4296005251260107 0  -0.1969436423297711 -0.6387157229772615 0  -0.6179496409766825 -0.08933356056510935 0  -0.424405057115988 0.04452428810878029 0  -0.08479048335844169 0.1279607007132633 0  0.003830300099055113 0.8712085230656206 0  0.8748778838820267 -1.379218479898026e-05 0  -0.375 1 0  -0.625 1 0  1 0.125 0  -0.125 1 0  1 -0.375 0  1 -0.125 0  1 -0.625 0  0.625 -1 0  0.125 -1 0  -0.625 -1 0  -1 -0.625 0  -1 0.125 0  -1 0.375 0  -1 0.625 0  1 0.375 0  1 0.625 0  0.6325660748712082 0.3335187599557389 0  -0.06420945895056573 0.7549874027425891 0  -0.8769015540914771 0.2478802253893416 0  0.871875 0.871875 0  -0.6868091492840067 0.3270978624973681 0  -0.5363597469565949 0.412994850055505 0  -0.6803734992638302 0.5574295000651103 0  -0.7076253581162534 -0.8803439094224437 0  -0.8778089002295137 -0.5106896447504627 0  -0.3860184984222981 0.530566778071246 0  0.6109900617121508 0.1128453077697081 0  0.3896945134930274 -0.1915382873255086 0  0.7605656944697778 -0.06822134873122943 0  0.3576151269893478 0.5948388411612135 0  -0.5689902680792265 -0.5143596830118065 0  0.6262446286847614 -0.5735657901943212 0  0.2030558252325225 -0.5625263842513452 0  0.6123273142928579 0.7407533260723429 0  0.4016460890123554 -0.3042863223111857 0  -0.59039693199147 0.7578418819188018 0  0.7276932493917544 -0.3705808024528924 0  0.5222536818742854 -0.4713886230400014 0  -0.5101986527137737 0.8848365765607674 0  0.510560172809238 0.5356013299918891 0  -0.3603569195756083 0.75823710606415 0  0.1967279277813232 0.728226870058472 0  -0.6086880986371127 0.1545624071548516 0  -0.38105366729386 0.1511189987807864 0  -0.2944659463671584 -0.7359061804869591 0  0.5060729154966499 -0.3475227845833823 0  -0.09281616240412746 -0.06197858250969457 0  0.7649739583333334 0.6673177083333334 0  0.7628906249999999 0.890234375 0  -0.2666864184909611 0.2585504071132311 0  0.3635064892129658 0.3878003602709461 0  -0.2339409722222222 0.8901937905844155 0  -0.1718792125974916 -0.8957733325456778 0  0.1001768566329531 0.4023510017391879 0  0.3120260172693757 -0.4540546875576884 0  0.7804062804433681 0.1896628610854537 0  0.4087715451998049 0.187961780041608 0  -0.1584963477271457 0.5451611892421655 0  -0.8926817849258324 0.463022006336401 0  0.2338091473445219 -0.07576267331277289 0  0.08171112182813692 -0.2349087687359925 0  0.04635385178956847 -0.1044635073718474 0  -0.4377391632114205 -0.6448874471423088 0  -0.1907678351227189 0.6480215912813945 0  0.300605946475244 0.4741444604171038 0  -0.2145033720757486 -0.06751709909419711 0  0.6069191921170397 -0.005492331448357812 0  0.0214718770761248 0.6032397936031719 0  0.5476675683364878 0.8992752415326501 0  0.4387475014316537 0.9093708953002239 0  -0.4932997685306436 -0.4381009159993523 0  0.2515197695339056 -0.1791673369138964 0  -0.7291666666666667 -0.6088789682539681 0  -0.9166666666666667 -0.6875 0  0.620579540363709 -0.2122431523583302 0  -0.484950136419973 0.6719440339397442 0  0.2857044415400258 0.0137589173127316 0  -0.8945708364098356 -0.288306105327986 0  0.4043102720140535 0.7842914560451557 0  0.04123256238752064 -0.9026968245801402 0  0.2003676884403109 -0.9091888601740487 0  0.1068775558538842 -0.7373377130403223 0  -0.4804566783514427 -0.1763307203045643 0  0.108286342087769 -0.3993789328997278 0  -0.191883080105361 -0.3640821726430649 0  -0.07025064492006244 0.2984876656890053 0  -0.7039324641409584 0.788312126296613 0  -0.7311286585775438 0.8932502354831682 0  0.5171409396884947 0.1503852691889257 0  0.4229392823658633 -0.003216522184234835 0  -0.5621736087218259 -0.919558629836806 0  -0.626474064879544 -0.7266572613636506 0  0.2446828746617422 0.2867616783302419 0  0.1759429608742923 0.4776611759306416 0  -0.3468240303741654 -0.5260416435617549 0  -0.7465808808425306 0.4069574477998361 0  -0.7819962170660292 0.2802441065650652 0  -0.3742623214119594 -0.8547800509641984 0  0.1014498009713561 0.8506721983266377 0  0.4285217620918213 -0.5230190595570253 0  0.4091738370487775 -0.6256346204225141 0  0.78125 0.46875 0  0.90625 0.53125 0  -0.4791801348852565 0.2553992655702126 0  0.7843318610782772 -0.7086046956885941 0  0.8909728264971901 -0.7355183796514634 0  0.7041908166528879 -0.7830649143180282 0  0.7311821352
[...]
<PointData  Vectors="f_22"> 
<DataArray  type="Float64"  Name="f_22"  NumberOfComponents="3" format="ascii">-2.8028878165920865e-03 -2.8490739162164765e-03 0.0000000000000000e+00  -2.8028878165920865e-03 -2.8490739162164765e-03 0.0000000000000000e+00  -2.8028878165920865e-03 -2.8490739162164765e-03 0.0000000000000000e+00  -2.8028878165920865e-03 -2.8490739162164765e-03 0.0000000000000000e+00  -2.8025893294335064e-03 -2.9553013085320420e-03 0.0000000000000000e+00  -2.9174803493453036e-03 -2.8487097848688319e-03 0.0000000000000000e+00  -2.8025893294335064e-03 -2.9553013085320420e-03 0.0000000000000000e+00  -2.9174803493453036e-03 -2.8487097848688319e-03 0.0000000000000000e+00  -2.9177478741974905e-03 -2.9556761330630922e-03 0.0000000000000000e+00  -1.8549498445976152e-03 -2.8488722578268047e-03 0.0000000000000000e+00  -2.8027394429460573e-03 -1.8970388807274014e-03 0.0000000000000000e+00  -2.8027394429460573e-03 -1.8970388807274014e-03 0.0000000000000000e+00  -3.8654304159696107e-03 -2.8488543301884400e-03 0.0000000000000000e+00  -1.8549498445976152e-03 -2.8488722578268047e-03 0.0000000000000000e+00  -2.8027060404841276e-03 -3.9073985205575132e-03 0.0000000000000000e+00  -3.8654304159696107e-03 -2.8488543301884400e-03 0.0000000000000000e+00  -2.8027060404841276e-03 -3.9073985205575132e-03 0.0000000000000000e+00  -1.9039227433760803e-03 -3.8868124368458008e-03 0.0000000000000000e+00  -3.8458680076581837e-03 -1.9449556904286242e-03 0.0000000000000000e+00  -1.8550926636472062e-03 -2.2292069965298240e-03 0.0000000000000000e+00  -3.6117158944175085e-03 -3.9074842494953611e-03 0.0000000000000000e+00  -2.6987406285388137e-03 -1.9003511761171272e-03 0.0000000000000000e+00  -3.8638904971390760e-03 -3.1835122411727804e-03 0.0000000000000000e+00  -1.9096900038154197e-03 -1.9533259561823426e-03 0.0000000000000000e+00  -3.7670736368511063e-03 -3.8106067059164423e-03 0.0000000000000000e+00  -2.1898367939094951e-03 -3.6025906445557700e-03 0.0000000000000000e+00  -3.5228434626615045e-03 -2.0749826257997045e-03 0.0000000000000000e+00  -3.5578027488322866e-03 -2.2289770778128036e-03 0.0000000000000000e+00  -1.9200538517655120e-03 -3.2792588223214199e-03 0.0000000000000000e+00  -1.9761374342043949e-03 -3.7275575871195381e-03 0.0000000000000000e+00  -3.6833833961555768e-03 -2.0204243933316783e-03 0.0000000000000000e+00  -2.6987524357869300e-03 -3.8184852935609797e-03 0.0000000000000000e+00  -2.0718267764820984e-03 -2.1061841762234955e-03 0.0000000000000000e+00  -3.5768856163524865e-03 -3.7703547033748762e-03 0.0000000000000000e+00  -2.0372252141426231e-03 -3.0201679149672559e-03 0.0000000000000000e+00  -3.3611117887684919e-03 -2.1855238683276923e-03 0.0000000000000000e+00  -2.0630280175613744e-03 -3.8621156120726562e-03 0.0000000000000000e+00  -2.3807925832250395e-03 -2.2954982912226241e-03 0.0000000000000000e+00  -3.4690781163217153e-03 -3.5800961424681311e-03 0.0000000000000000e+00  -3.8109649270708420e-03 -3.5753423877100269e-03 0.0000000000000000e+00  -2.1306609733891292e-03 -2.5065209012261384e-03 0.0000000000000000e+00  -3.0517361062476524e-03 -3.6659441481460497e-03 0.0000000000000000e+00  -2.8028238658866092e-03 -2.1539193460763653e-03 0.0000000000000000e+00  -2.1089022038075066e-03 -2.8490118947600675e-03 0.0000000000000000e+00  -3.5304509705655599e-03 -2.8489832880163372e-03 0.0000000000000000e+00  -2.8028302595721941e-03 -3.5753667745743786e-03 0.0000000000000000e+00  -2.7717234714344061e-03 -2.1410823385779468e-03 0.0000000000000000e+00  -2.0144893668801772e-03 -1.9112581721869709e-03 0.0000000000000000e+00  -3.8669275397308074e-03 -3.8797695204580420e-03 0.0000000000000000e+00  -2.8026234755019848e-03 -3.6505598728633869e-03 0.0000000000000000e+00  -2.8026245336700202e-03 -2.2290180362139669e-03 0.0000000000000000e+00  -2.8028238658866092e-03 -2.1539193460763653e-03 0.0000000000000000e+00  -2.8028302595721941e-03 -3.5753667745743786e-03 0.0000000000000000e+00  -2.1898716944178335e-03 -2.8487688979521027e-03 0.0000000000000000e+00  -3.6115018983461171e-03 -2.8487519383054763e-03 0.0000000000000000e+00  -2.1898716944178335e-03 -2.8487688979521027e-03 0.0000000000000000e+00  -2.8026245336700202e-03 -2.2290180362139669e-03 0.0000000000000000e+00  -2.1089022038075066e-03 -2.8490118947600675e-03 0.0000000000000000e+00  -3.5304509705655599e-03 -2.8489832880163372e-03 0.0000000000000000e+00  -2.8026234755019848e-03 -3.6505598728633869e-03 0.0000000000000000e+00  -3.6115018983461171e-03 -2.8487519383054763e-03 0.0000000000000000e+00  -2.1296944547691760e-03 -1.9581320098273434e-03 0.0000000000000000e+00  -3.5116235392961860e-03 -3.1581665352203949e-03 0.0000000000000000e+00  -3.8197495654858160e-03 -2.4724350865353937e-03 0.0000000000000000e+00  -3.8586046667596274e-03 -1.9858784076491622e-03 0.0000000000000000e+00  -3.3798546854307489e-03 -1.8983779285311495e-03 0.0000000000000000e+00  -3.4684185224143128e-03 -1.9049757224310893e-03 0.0000000000000000e+00  -1.8736165331108376e-03 -3.7890113945760659e-03 0.0000000000000000e+00  -2.2735126577691908e-03 -3.9031263754765923e-03 0.0000000000000000e+00  -3.5527846760273524e-03 -2.9484877609851274e-03 0.0000000000000000e+00  -2.4478687205739891e-03 -3.4063222496469778e-03 0.0000000000000000e+00  -1.8826506850498730e-03 -3.5402286491326850e-03 0.0000000000000000e+00  -3.7634357729391180e-03 -2.6884254940603486e-03 0.0000000000000000e+00  -3.7990295612757904e-03 -2.3623275219504998e-03 0.0000000000000000e+00  -1.9096401932120338e-03 -2.3536156004573417e-03 0.0000000000000000e+00  -2.2812304730243267e-03 -1.9254218308944226e-03 0.0000000000000000e+00  -1.8548938323239958e-03 -1.9201248633634897e-03 0.0000000000000000e+00  -3.8350248189688786e-03 -3.4163819216788084e-03 0.0000000000000000e+00  -3.4536225343249627e-03 -3.4987876562153877e-03 0.0000000000000000e+00  -3.4186605226686670e-03 -3.9055324414261935e-03 0.0000000000000000e+00  -2.3207911662907091e-03 -3.3359734967276693e-03 0.0000000000000000e+00  -2.2692575617497537e-03 -2.3148347669150024e-03 0.0000000000000000e+00  -1.8734699332438956e-03 -2.7106345037663055e-03 0.0000000000000000e+00  -3.0732255961466257e-03 -3.9056138146840872e-03 0.0000000000000000e+00  -2.1308378605807317e-03 -3.7324317782023182e-03 0.0000000000000000e+00  -1.8785870488806499e-03 -3.9044902852431612e-03 0.0000000000000000e+00  -2.3761246032978694e-03 -3.8104513701334073e-03 0.0000000000000000e+00  -2.2625180575440444e-03 -3.4072220013501488e-03 0.0000000000000000e+00  -3.8249895721160199e-03 -1.8955354295784900e-03 0.0000000000000000e+00  -3.7668883100934296e-03 -2.4219128785439104e-03 0.0000000000000000e+00  -3.3623651870538312e-03 -2.3060358026163329e-03 0.0000000000000000e+00  -1.9094860655295743e-03 -3.2861922898961681e-03 0.0000000000000000e+00  -3.8477848411819860e-03 -2.1859703817431308e-03 0.0000000000000000e+00  -1.8806970740796395e-03 -3.3839837688735106e-03 0.0000000000000000e+00  -3.8615174060499277e-03 -3.8594068104027650e-03 0.0000000000000000e+00  -2.5283917099144940e-03 -3.2550966100217947e-03 0.0000000000000000e+00  -3.2093230415750768e-03 -2.5666043913605981e-03 0.0000000000000000e+00  -3.2977790893074532e-03 -2.4518297910577839e-03 0.0000000000000000e+00  -3.2978308696638868e-03 -3.2532917616707479e-03 0.0000000000000000e+00  -3.2032135386694045e-03 -1.9531841673443386e-03 0.0000000000000000e+00  -3.8237348833697082e-03 -3.6159362180873027e-03 0.0000000000000000e+00  -3.8324958258788757e-03 -3.6409062176130692e-03 0.0000000000000000e+00  -2.9814605854899387e-03 -3.4679904766231405e-03 0.0000000000000000e+00  -1.8637828575784822e-03 -3.7862976191385643e-03 0.0000000000000000e+00  -1.8600648541522320e-03 -2.1114631289974590e-03 0.0000000000000000e+00  -1.9533880927402538e-03 -2.8488057688253361e-03 0.0000000000000000e+00  -2.2824411389078180e-03 -1.9161125668759470e-03 0.0000000000000000e+00  -3.5355308391902241e-03 -3.7343738505877834e-03 0.0000000000000000e+00  -2.8026621590931948e-03 -3.8512214831887973e-03 0.0000000000000000e+00  -3.7044985111212561e-03 -1.9102555016572626e-03 0.0000000000000000e+00  -2.5284188838761552e-03 -2.8487007032301065e-03 0.0000000000000000e+00  -2.3493816522926121e-03 -2.3856435953490203e-03 0.0000000000000000e+00  -2.8415827223942313e-03 -2.0924789014138793e-03 0.0000000000000000e+00  -2.0180394437978822e-03 -2.1411501272484909e-03 0.0000000000000000e+00  -1.8986041545133159e-03 -2.6195446913530760e-03 0.0000000000000000e+00  -2.4115332611720996e-03 -2.7963727161954073e-03 0.0000000000000000e+00  -2.5695271686595961e-03 -3.7797776873675628e-03 0.0000000000000000e+00  -3.7456475502649538e-03 -3.9071973293192076e-03 0.0000000000000000e+00  -3.2072194009406699e-03 -3.8237979001215505e-03 0.0000000000000000e+00  -3.0397444067635604e-03 -1.9350251494519648e-03 0.0000000000000000e+00  -3.2093418276422764e-03 -2.0421488552723409e-03 0.0000000000000000e+00  -2.8027489652284717e-03 -3.8105324052046742e-03 0.0000000000000000e+00  -3.0026379236814012e-03 -2.4642071312056513e-03 0.0000000000000000e+00  -1.8602178825982971e-03 -3.1012132705628363e-03 0.0000000000000000e+00  -3.1919031663158884e-03 -2.8490109029880007e-03 0.0000000000000000e+00  -3.7319443013361072e-03 -1.9824020191058504e-03 0.0000000000000000e+00  -3.6384063504519039e-03 -1.9903765281796297e-03 0.0000000000000000e+00  -1.9279482903817727e-03 -1.9319516764871572e-03 0.0000000000000000e+00  -2.8026025918127793e-03 -3.3359412595934911e-03 0.0000000000000000e+00  -3.2779314222929380e-03 -3.5386979534075794e-03 0.0000000000000000e+00  -2.3413629122663120e-03 -3.7147753370021159e-03 0.0000000000000000e+00  -1.9138430956544519e-03 -2.0667425787726733e-03 0.0000000000000000e+00  -3.6692134721673210e-03 -3.8171449880055677e-03 0.0000000000000000e+00  -2.3548520567789285e-03 -3.9082898014646383e-03 0.0000000000000000e+00  -2.0180924571002005e-03 -3.6256427693519629e-03 0.0000000000000000e+00  -3.8118914458656955e-03 -2.9404973956722478e-03 0.0000000000000000e+00  -1.9323451870282525e-03 -2.3983371745177114e-03 0.0000000000000000e+00  -3.7011136050542227e-03 -3.3284467957704479e-03 0.0000000000000000e+00  -2.3064751518752612e-03 -1.9914346578876248e-03 0.0000000000000000e+00  -2.3429276081872235e-03 -2.1725179138804966e-03 0.0000000000000000e+00  -2.1027549779502764e-03 -2.9705381488817064e-03 0.0000000000000000e+00  -2.8025902482658438e-03 -2.5666277476829721e-03 0.0000000000000000e+00  -2.4149232509846439e-03 -2.7660056962720459e-03 0.0000000000000000e+00  -3.8573583238087905e-03 -3.2376326254740968e-03 0.0000000000000000e+00  -3.6547840969090219e-03 -3.2981617211553485e-03 0.0000000000000000e+00  -2.8028502062529166e-03 -3.2377326366706412e-03 0.0000000000000000e+00  -3.5810839148433843e-03 -2.4934838596174982e-03 0.0000000000000000e+00  -3.2176339374047065e-03 -3.8062267915241772e-03 0.0000000000000000e+00  -3.8653367194526941e-03 -2.2327559357359266e-03 0.0000000000000000e+00  -1.8594075439943344e-03 -3.5987421756236986e-03 0.0000000000000000e+00  -2.0610391070511711e-03 -3.4278671220023160e-03 0.0000000000000000e+00  -2.0386490982495591e-03 -2.1115264821504839e-03 0.0000000000000000e+00  -2.8026778529362997e-03 -1.9938892964601771e-03 0.0000000000000000e+00  -3.2611253107779482e-03 -3.7763597834143945e-03 0.0000000000000000e+00  -2.1167746998918455e-03 -2.5534547224950388e-03 0.0000000000000000e+00  -3.2618316234140454e-03 -3.1875945035332461e-03 0.0000000000000000e+00  -2.0492909559626416e-03 -3.8239181965437699e-03 0.0000000000000000e+00  -2.0885600082432530e-03 -3.8830283792545919e-03 0.0000000000000000e+00  -2.8026621590931948e-03 -3.8512214831887973e-03 0.0000000000000000e+00  -2.6529639038484383e-03 -3.9087666103860448e-03 0.0000000000000000e+00  -3.6715766949380908e-03 -3.2260492090883976e-03 0.0000000000000000e+00  -3.8658506618821937e-03 -2.7688011160795609e-03 0.0000000000000000e+00  -3.7536120518354525e-03 -3.3391711614199114e-03 0.0000000000000000e+00  -2.0653499166103516e-03 -3.2551004388761367e-03 0.0000000000000000e+00  -3.8019546496568185e-03 -2.1380997956335886e-03 0.0000000000000000e+00  -2.8028749767946590e-03 -2.4684903164676462e-03 0.0000000000000000e+00  -3.1919031663158884e-03 -2.8490109029880007e-03 0.0000000000000000e+00  -2.4225903752995311e-03 -2.8490614465654005e-03 0.0000000000000000e+00  -2.8028502062529166e-03 -3.2377326366706412e-03 0.0000000000000000e+00  -2.8979420479313509e-03 -2.4509788184594781e-03 0.0000000000000000e+00  -3.1795119493943694e-03 -2.1430043222460233e-03 0.0000000000000000e+00  -2.3868505411011403e-03 -2.0844516677069416e-03 0.0000000000000000e+00  -2.0328276192329376e-03 -1.8961745825084131e-03 0.0000000000000000e+00  -2.4132440707061798e-03 -1.9054493366178042e-03 0.0000000000000000e+00  -3.8138402630328101e-03 -3.9084711582420811e-03 0.0000000000000000e+00  -2.8028749767946590e-03 -2.4684903164676462e-03 0.0000000000000000e+00  -2.4225903752995311e-03 -2.8490614465654005e-03 0.0000000000000000e+00  -3.8615290134742398e-03 -3.6984826674625959e-03 0.0000000000000000e+00  -1.8922085903319654e-03 -1.9951004610159607e-03 0.0000000000000000e+00  -1.9247185827618886e-03 -2.3626498670655791e-03 0.0000000000000000e+00  -2.6369434728598260e-03 -1.9459342982199859e-03 0.0000000000000000e+00  -3.0572383766074083e-03 -1.9378067626125072e-03 0.0000000000000000e+00  -3.3065045924238114e-03 -2.6891869610699668e-03 0.0000000000000000e+00  -3.2028926348793970e-03 -2.9674307244630634e-03 0.0000000000000000e+00  -2.9174361633898817e-03 -3.2377887909247208e-03 0.0000000000000000e+00  -2.8026778529362997e-03 -1.9938892964601771e-03 0.0000000000000000e+00  -2.8027637938056972e-03 -1.9532414324069766e-03 0.0000000000000000e+00  -3.2977780526978109e-03 -2.8487305057383434e-03 0.0000000000000000e+00  -2.8025902482658438e-03 -2.5666277476829721e-03 0.0000000000000000e+00  -1.9533880927402538e-03 -2.8488057688253361e-03 0.0000000000000000e+00  -2.5284188838761552e-03 -2.8487007032301065e-03 0.0000000000000000e+00  -1.9095671411584838e-03 -2.8489206893996147e-03 0.0000000000000000e+00  -2.8027489652284717e-03 -3.8105324052046742e-03 0.0000000000000000e+00  -2.8026025918127793e-03 -3.3359412595934911e-03 0.0000000000000000e+00  -2.8027637938056972e-03 -1.9532414324069766e-03 0.0000000000000000e+00  -1.9095671411584838e-03 -2.8489206893996147e-03 0.0000000000000000e+00  -3.2977780526978109e-03 -2.8487305057383434e-03 0.0000000000000000e+00  -3.8108419548373395e-03 -2.8488086823243073e-03 0.0000000000000000e+00  -3.7669728268089628e-03 -2.8489410033556385e-03 0.0000000000000000e+00  -3.8108419548373395e-03 -2.8488086823243073e-03 0.0000000000000000e+00  -3.7669728268089628e-03 -2.8489410033556385e-03 0.0000000000000000e+00  -3.7598567317834548e-03 -3.7999743643467986e-03 0.0000000000000000e+00  -3.5183600670692268e-03 -2.7528855417571015e-03 0.0000000000000000e+00  -3.6070135542646277e-03 -2.4735523829491021e-03 0.0000000000000000e+00  -3.2012557501881027e-03 -3.2470254546438553e-03 0.0000000000000000e+00  -3.7502831742251062e-03 -2.0355459344856656e-03 0.0000000000000000e+00  -3.8434357297364823e-03 -1.8973647155628342e-03 0.0000000000000000e+00  -3.8386473626253318e-03 -2.0254357560066131e-03 0.0000000000000000e+00  -2.4378583023668462e-03 -2.0712269203014117e-03 0.0000000000000000e+00  -1.8536668001724167e-03 -2.4763975001473202e-03 0.0000000000000000e+00  -3.8550813680709407e-03 -1.9793293933643955e-03 0.0000000000000000e+00  -3.2630525076905699e-03 -3.8286616204437768e-03 0.0000000000000000e+00  -2.3384493863401173e-03 -3.8657195790882228e-03 0.0000000000000000e+00  -2.7023671362894877e-03 -3.5498704043496203e-03 0.0000000000000000e+00  -3.8043838581088446e-03 -3.8316501260223929e-03 0.0000000000000000e+00  -1.8535731226610875e-03 -1.9092472455586344e-03 0.0000000000000000e+00  -1.8683809631845818e-03 -3.8086139042359177e-03 0.0000000000000000e+00  -1.8629470418861280e-03 -3.5435393681881827e-03 0.0000000000000000e+00  -3.5520427482490830e-03 -3.8271476505685070e-03 0.0000000000000000e+00  -2.0720721490938205e-03 -3.8759168616764542e-03 0.0000000000000000e+00  -3.5115059847965393e-03 -1.9223187218174948e-03 0.0000000000000000e+00  -1.9594488167225844e-03 -3.6258194913600808e-03 0.0000000000000000e+00  -1.8639977082566068e-03 -3.9010460998776600e-03 0.0000000000000000e+00  -3.1621477144288630e-03 -1.8958074789761901e-03 0.0000000000000000e+00  -3.8528892325043955e-03 -3.9051990583339694e-03 0.0000000000000000e+00  -3.5104832158345529e-03 -2.0147276227555680e-03 0.0000000000000000e+00  -3.5801488673284955e-03 -3.5280580714878050e-03 0.0000000000000000e+00  -3.3800305781066992e-03 -1.9370945124653589e-03 0.0000000000000000e+00  -3.3707747384411845e-03 -1.9858511567103143e-03 0.0000000000000000e+00  -2.0799167656612972e-03 -2.1314729440390350e-03 0.0000000000000000e+00  -1.9944196839692179e-03 -3.9060400861537239e-03 0.0000000000000000e+00  -2.7221831395804921e-03 -2.6644606141690086e-03 0.0000000000000000e+00  -3.7010263148402112e-03 -3.5394528491078259e-03 0.0000000000000000e+00  -3.1460405184014009e-03 -3.5445473093745549e-03 0.0000000000000000e+00  -3.6292952579991674e-03 -2.1908460565541036e-03 0.0000000000000000e+00  -3.8236141753760326e-03 -3.8387062022583371e-03 0.0000000000000000e+00  -3.1458408741748996e-03 -2.2675812103757163e-03 0.0000000000000000e+00  -2.4824280650367486e-03 -2.4310180944583626e-03 0.0000000000000000e+00  -3.8359228712842460e-03 -3.2641661034192517e-03 0.0000000000000000e+00  -1.8735428812693782e-03 -3.7667470418590856e-03 0.0000000000000000e+00  -3.4718545529355822e-03 -3.5007306739735446e-03 0.0000000000000000e+00  -3.4677640760502749e-03 -3.8815768801981057e-03 0.0000000000000000e+00  -3.8470651055218731e-03 -2.4688833860557636e-03 0.0000000000000000e+00  -3.8652406996547021e-03 -2.5192965224495314e-03 0.0000000000000000e+00  -2.6791020322767885e-03 -3.6156066933249261e-03 0.0000000000000000e+00  -2.2264289424826791e-03 -3.2091107233280748e-03 0.0000000000000000e+00  -2.5906987781051916e-03 -3.1009881446211222e-03 0.0000000000000000e+00  -1.9322254022976517e-03 -1.9266792488684570e-03 0.0000000000000000e+00  -3.7327369905884025e-03 -2.3790965169900109e-03 0.0000000000000000e+00  -3.8669077362351602e-03 -3.7479222130861207e-03 0.0000000000000000e+00  -2.7048556595250387e-03 -2.3167711895700272e-03 0.0000000000000000e+00  -2.9002255375303282e-03 -3.8335582830753934e-03 0.0000000000000000e+00  -3.7946388611711638e-03 -3.0231149330691228e-03 0.0000000000000000e+00  -3.1184456737483762e-03 -3.8882563840977372e-03 0.0000000000000000e+00  -3.0874072404023954e-03 -3.8990468247835515e-03 0.0000000000000000e+00  -1.8851796630711360e-03 -1.8985302087514428e-03 0.0000000000000000e+00  -2.3723721139591977e-03 -3.6539287574602086e-03 0.0000000000000000e+00  -1.8941023951171815e-03 -2.1115174012924084e-03 0.0000000000000000e+00  -1.9925992093439192e-03 -2.5907156080111739e-03 0.0000000000000000e+00  -2.2834693950056543e-03 -3.8162409468472224e-03 0.0000000000000000e+00  -3.6925478497816448e-03 -1.9005595341749228e-03 0.0000000000000000e+00  -2.9611204056383595e-03 -3.7214314846678860e-03 0.0000000000000000e+00  -2.1045695811310362e-03 -2.5248693323537230e-03 0.0000000000000000e+00  -3.4457752104734606e-03 -3.8781417401873189e-03 0.0000000000000000e+00  -2.5027330912542616e-03 -3.0846882360487092e-03 0.0000000000000000e+00  -2.5220097241135182e-03 -3.5369225395788725e-03 0.0000000000000000e+00  -2.0825733179887593e-03 -3.2835959740677182e-03 0.0000000000000000e+00  -2.3803470219728199e-03 -1.9022876442559506e-03 0.0000000000000000e+00  -1.9226049056818638e-03 -3.2878741675012027e-03 0.0000000000000000e+00  -1.9691396522467808e-03 -2.3763536121246221e-03 0.0000000000000000e+00  -3.7046514146806689e-03 -2.7342819255518091e-03 0.0000000000000000e+00  -3.4352223184884794e-03 -2.0645436060506587e-03 0.0000000000000000e+00  -3.1367608415077386e-03 -2.1152969447925702e-03 0.0000000000000000e+00  -3.3688682038061795e-03 -3.9031119996019146e-03 0.0000000000000000e+00  -2.9074913100215348e-03 -3.8908970710647473e-03 0.0000000000000000e+00  -2.5533134812742212e-03 -1.9058817499925768e-03 0.0000000000000000e+00  -2.0618879415655223e