<?xml version="1.0"?>
<VTKFile type="UnstructuredGrid"  version="0.1"  >
<UnstructuredGrid>
<Piece  NumberOfPoints="1380" NumberOfCells="2630">
<Points>
<DataArray  type="Float64"  NumberOfComponents="3"  format="ascii">-1 -1 0  1 -1 0  1 1 0  -1 1 0  0 -1 0  1 0 0  0 1 0  -1 0 0  0 0 0  -1 -0.5 0  -0.5 -1 0  -0.5 1 0  -1 0.5 0  1 -0.5 0  0.5 -1 0  1 0.5 0  0.5 1 0  0.4166666666666666 -0.4166666666666667 0  -0.4166666666666667 0.4166666666666667 0  -0.25 -0.5 0  0.5 0.25 0  -0.4861111111111112 -0.06944444444444445 0  0.0732758620689655 0.507183908045977 0  -0.625 -0.625 0  0.625 0.625 0  0.7380952380952381 -0.25 0  -0.7099116161616161 0.2105429292929293 0  -0.25 0.7380952380952381 0  0.105392156862745 -0.6348039215686275 0  0.6770833333333334 -0.6770833333333333 0  -0.6770833333333334 0.6770833333333334 0  0.3472222222222222 -0.06944444444444446 0  -0.7264957264957265 -0.3044871794871795 0  0.3141940982507127 0.7297313660835709 0  0.02049587951122483 -0.3227479397556124 0  -0.2690972222222223 0.1475694444444444 0  0.3859500089908372 -0.7274430156831472 0  -0.2228477945123298 -0.1761765495248019 0  0.2182539682539683 0.1884920634920635 0  0.75 0.375 0  -0.145442219440968 -0.7602211097204841 0  0.7088913690476191 0.0427827380952381 0  -0.75 -1 0  -1 -0.75 0  1 0.75 0  0.75 1 0  -0.7439982703698937 -0.04614153195464455 0  -0.4609235096577606 -0.3356498099556895 0  0.4063134471431929 0.4895621842856023 0  0.25 -1 0  -0.25 -1 0  -0.75 1 0  0.75 -1 0  -1 -0.25 0  -1 0.25 0  1 -0.25 0  -0.25 1 0  1 -0.75 0  -1 0.75 0  0.25 1 0  1 0.25 0  -0.4041423272138783 -0.7597141090712928 0  0.06500839607911253 0.7578103030529481 0  -0.1572801182352047 0.3838997021864289 0  -0.6528005242053915 0.4409494757946086 0  -0.4930160984848485 0.1544744318181818 0  -0.4732142857142858 0.7752976190476191 0  0.6398809523809523 -0.4538690476190476 0  0.5166054117396399 -0.2161233620965164 0  -0.002273787244753427 0.2232363985975174 0  0.1500564496765022 -0.1524955293952667 0  0.2016720420046758 -0.4410343282803009 0  -0.08495178036419618 0.6274139771124571 0  -0.8367311471133162 0.3642591720794645 0  -0.8333333333333334 -0.625 0  -0.594323836800685 -0.8231079456002283 0  -0.4466957714776065 -0.5349126855671806 0  0.8125 0.5625 0  0.78125 0.78125 0  0.5091392650016769 0.7947130883338923 0  0.125 -0.8382681931833136 0  -0.8184523809523809 -0.8184523809523809 0  -0.07781530426104531 -0.5819319697006881 0  0.5085055196703295 0.04967610411902112 0  0.2918471072074933 -0.276017202318847 0  0.5120763537765269 -0.5898771553229597 0  0.625 -0.8585349462365591 0  0.8158532234335381 -0.8158532234335381 0  -0.5198088446315396 0.5739411553684605 0  -0.8585349462365591 0.625 0  -0.8150493805516597 0.8156205699829586 0  0.8585349462365591 -0.625 0  -0.2688268348649726 0.5439331383603209 0  0.8242100426758139 -0.4436043596336612 0  0.5833756314287952 0.4479378157143976 0  0.8690476190476191 -0.125 0  -0.125 0.8690476190476191 0  -0.8692745600729823 0.125 0  0.8696725120759167 0.125 0  -0.625 0.8711516477451908 0  0.2339522463269718 0.3879558377955778 0  0.2453709502295031 0.5655822922838026 0  0.1730610651637797 0.02021709580868947 0  0.3245402594056757 -0.5644672020485209 0  -0.7291666666666666 -0.4816595441595442 0  -1 -0.375 0  -0.5811140848639904 -0.2127276307675001 0  0.673332592838314 0.2158348143233718 0  0.375 1 0  -0.5714768890989919 0.2985103444040069 0  -1 -0.125 0  -0.8453692574786325 -0.1875 0  -0.3144549134065865 -0.02408675326008025 0  -0.2898414972096258 -0.3336092734780093 0  -0.1075052092206287 -0.4224330421314983 0  -0.05043970703604117 -0.1652278959397459 0  0.6459672950297897 -0.1113415301525317 0  0.4645210271029513 0.6398480556579343 0  0.3512863754411909 0.0937979496253573 0  -0.6063160985568274 0.03891469652249891 0  -0.3428819444444445 0.8690476190476191 0  0.625 1 0  -0.1602164796159982 0.02697860906625157 0  0.04648110064133829 -0.4808416424239687 0  1 0.875 0  -0.3836102479201657 0.6484936449177356 0  -0.3776011723096096 0.263078478984336 0  -0.6024978259969829 -0.3949628096211138 0  0.125 1 0  0.2010781308272777 0.8456221018461906 0  0.2822509696388829 -0.845902544691141 0  -0.3285533674953515 -0.6289773550938936 0  0.3461306793221754 0.278777492464833 0  0.4737475672408696 -0.8508448959534423 0  0.2384632828836344 -0.7029523187242811 0  -0.004777287059791593 0.3759269695907358 0  -0.8499735021850066 -0.3912320205328522 0  0.1222536293721587 0.2963971539625205 0  -0.3769456520999688 -0.203572526805711 0  -0.2749617205755651 -0.8464290792698902 0  0.004805888512766143 -0.747174355248311 0  -0.125 -1 0  -0.06001061822252458 -0.8724007765244854 0  0.875 0.4375 0  0.854421179608893 0.271342359217786 0  0.875 1 0  -0.1499861095763589 0.2358309656934888 0  0.3381943639137225 0.8663061796405532 0  -0.7853090110442228 0.4998412775277108 0  0.7398165998560814 -0.5535192694951373 0  0.1580042122341573 -0.3100246140259917 0  -0.7291666666666667 -0.7142857142857142 0  -0.375 -1 0  0.6483368386154684 0.8514905990110488 0  -0.1295370103291928 -0.2826118305021242 0  0.07458201853700455 0.1123894386563915 0  0.6146465857036327 -0.3161203659316075 0  0.5551898493894731 -0.740296118159085 0  0.375 -1 0  0.482702798370208 -0.084133350091034 0  0.87890625 0.68359375 0  -0.05917195534525846 0.4971092425697621 0  0.1260710309213975 0.6343750312956699 0  0.8690476190476191 -0.3077066815262848 0  -0.2912010232560567 0.3668168386732139 0  -0.875 1 0  -1 0.875 0  1 -0.875 0  0.875 -1 0  -0.8689564281364567 -0.006189266075306407 0  -0.7449425635110547 0.08458938160051771 0  -0.7150266761936593 -0.1739444581417552 0  -0.5260034831318311 -0.711099823962112 0  -0.4724626808827322 -0.871722230709409 0  0.4734436795977052 0.377714794132168 0  -0.875 -1 0  -1 -0.875 0  0.6927189078571988 0.5156567235715964 0  -0.3742497615796874 -0.4296005251260107 0  -0.1969436423297711 -0.6387157229772615 0  -0.6179496409766825 -0.08933356056510935 0  -0.424405057115988 0.04452428810878029 0  -0.08479048335844169 0.1279607007132633 0  0.003830300099055113 0.8712085230656206 0  0.8748778838820267 -1.379218479898026e-05 0  -0.375 1 0  -0.625 1 0  1 0.125 0  -0.125 1 0  1 -0.375 0  1 -0.125 0  1 -0.625 0  0.625 -1 0  0.125 -1 0  -0.625 -1 0  -1 -0.625 0  -1 0.125 0  -1 0.375 0  -1 0.625 0  1 0.375 0  1 0.625 0  0.6325660748712082 0.3335187599557389 0  -0.06420945895056573 0.7549874027425891 0  -0.8769015540914771 0.2478802253893416 0  0.871875 0.871875 0  -0.6868091492840067 0.3270978624973681 0  -0.5363597469565949 0.412994850055505 0  -0.6803734992638302 0.5574295000651103 0  -0.7076253581162534 -0.8803439094224437 0  -0.8778089002295137 -0.5106896447504627 0  -0.3860184984222981 0.530566778071246 0  0.6109900617121508 0.1128453077697081 0  0.3896945134930274 -0.1915382873255086 0  0.7605656944697778 -0.06822134873122943 0  0.3576151269893478 0.5948388411612135 0  -0.5689902680792265 -0.5143596830118065 0  0.6262446286847614 -0.5735657901943212 0  0.2030558252325225 -0.5625263842513452 0  0.6123273142928579 0.7407533260723429 0  0.4016460890123554 -0.3042863223111857 0  -0.59039693199147 0.7578418819188018 0  0.7276932493917544 -0.3705808024528924 0  0.5222536818742854 -0.4713886230400014 0  -0.5101986527137737 0.8848365765607674 0  0.510560172809238 0.5356013299918891 0  -0.3603569195756083 0.75823710606415 0  0.1967279277813232 0.728226870058472 0  -0.6086880986371127 0.1545624071548516 0  -0.38105366729386 0.1511189987807864 0  -0.2944659463671584 -0.7359061804869591 0  0.5060729154966499 -0.3475227845833823 0  -0.09281616240412746 -0.06197858250969457 0  0.7649739583333334 0.6673177083333334 0  0.7628906249999999 0.890234375 0  -0.2666864184909611 0.2585504071132311 0  0.3635064892129658 0.3878003602709461 0  -0.2339409722222222 0.8901937905844155 0  -0.1718792125974916 -0.8957733325456778 0  0.1001768566329531 0.4023510017391879 0  0.3120260172693757 -0.4540546875576884 0  0.7804062804433681 0.1896628610854537 0  0.4087715451998049 0.187961780041608 0  -0.1584963477271457 0.5451611892421655 0  -0.8926817849258324 0.463022006336401 0  0.2338091473445219 -0.07576267331277289 0  0.08171112182813692 -0.2349087687359925 0  0.04635385178956847 -0.1044635073718474 0  -0.4377391632114205 -0.6448874471423088 0  -0.1907678351227189 0.6480215912813945 0  0.300605946475244 0.4741444604171038 0  -0.2145033720757486 -0.06751709909419711 0  0.6069191921170397 -0.005492331448357812 0  0.0214718770761248 0.6032397936031719 0  0.5476675683364878 0.8992752415326501 0  0.4387475014316537 0.9093708953002239 0  -0.4932997685306436 -0.4381009159993523 0  0.2515197695339056 -0.1791673369138964 0  -0.7291666666666667 -0.6088789682539681 0  -0.9166666666666667 -0.6875 0  0.620579540363709 -0.2122431523583302 0  -0.484950136419973 0.6719440339397442 0  0.2857044415400258 0.0137589173127316 0  -0.8945708364098356 -0.288306105327986 0  0.4043102720140535 0.7842914560451557 0  0.04123256238752064 -0.9026968245801402 0  0.2003676884403109 -0.9091888601740487 0  0.1068775558538842 -0.7373377130403223 0  -0.4804566783514427 -0.1763307203045643 0  0.108286342087769 -0.3993789328997278 0  -0.191883080105361 -0.3640821726430649 0  -0.07025064492006244 0.2984876656890053 0  -0.7039324641409584 0.788312126296613 0  -0.7311286585775438 0.8932502354831682 0  0.5171409396884947 0.1503852691889257 0  0.4229392823658633 -0.003216522184234835 0  -0.5621736087218259 -0.919558629836806 0  -0.626474064879544 -0.7266572613636506 0  0.2446828746617422 0.2867616783302419 0  0.1759429608742923 0.4776611759306416 0  -0.3468240303741654 -0.5260416435617549 0  -0.7465808808425306 0.4069574477998361 0  -0.7819962170660292 0.2802441065650652 0  -0.3742623214119594 -0.8547800509641984 0  0.1014498009713561 0.8506721983266377 0  0.4285217620918213 -0.5230190595570253 0  0.4091738370487775 -0.6256346204225141 0  0.78125 0.46875 0  0.90625 0.53125 0  -0.4791801348852565 0.2553992655702126 0  0.7843318610782772 -0.7086046956885941 0  0.8909728264971901 -0.7355183796514634 0  0.7041908166528879 -0.7830649143180282 0  0.7311821352
[...]
<PointData  Vectors="f_22"> 
<DataArray  type="Float64"  Name="f_22"  NumberOfComponents="3" format="ascii">-2.8408571513865682e-03 -2.8840974500625150e-03 0.0000000000000000e+00  -2.8408571513865682e-03 -2.8840974500625150e-03 0.0000000000000000e+00  -2.8408571513865682e-03 -2.8840974500625150e-03 0.0000000000000000e+00  -2.8408571513865682e-03 -2.8840974500625150e-03 0.0000000000000000e+00  -2.8408248473441242e-03 -2.9203199291561992e-03 0.0000000000000000e+00  -2.8794995918696095e-03 -2.8840597348507584e-03 0.0000000000000000e+00  -2.8408248473441242e-03 -2.9203199291561992e-03 0.0000000000000000e+00  -2.8794995918696095e-03 -2.8840597348507584e-03 0.0000000000000000e+00  -2.8795234738829920e-03 -2.9203618706374998e-03 0.0000000000000000e+00  -2.5800203946905937e-03 -2.8840760060945044e-03 0.0000000000000000e+00  -2.8408433404817730e-03 -2.6220601082285505e-03 0.0000000000000000e+00  -2.8408433404817730e-03 -2.6220601082285505e-03 0.0000000000000000e+00  -3.1403399738443500e-03 -2.8840710911629481e-03 0.0000000000000000e+00  -2.5800203946905937e-03 -2.8840760060945044e-03 0.0000000000000000e+00  -2.8408346199265992e-03 -3.1823757383597478e-03 0.0000000000000000e+00  -3.1403399738443500e-03 -2.8840710911629481e-03 0.0000000000000000e+00  -2.8408346199265992e-03 -3.1823757383597478e-03 0.0000000000000000e+00  -2.5945552906881573e-03 -3.1775054062195838e-03 0.0000000000000000e+00  -3.1357749733896541e-03 -2.6362820362700510e-03 0.0000000000000000e+00  -2.5800382918744354e-03 -2.7169383179048924e-03 0.0000000000000000e+00  -3.0719605205386919e-03 -3.1823823735385105e-03 0.0000000000000000e+00  -2.8184235030209921e-03 -2.6231193879221312e-03 0.0000000000000000e+00  -3.1398290047588177e-03 -2.9838008604147065e-03 0.0000000000000000e+00  -2.5939718900314171e-03 -2.6364678867275919e-03 0.0000000000000000e+00  -3.1116240977765888e-03 -3.1541188630946145e-03 0.0000000000000000e+00  -2.6757309506215540e-03 -3.0952240210156677e-03 0.0000000000000000e+00  -3.0475108933718932e-03 -2.6696777484518067e-03 0.0000000000000000e+00  -3.0523721735784982e-03 -2.7169175891979596e-03 0.0000000000000000e+00  -2.5968170125406607e-03 -3.0104186658306688e-03 0.0000000000000000e+00  -2.6120568481739249e-03 -3.1305341956528146e-03 0.0000000000000000e+00  -3.0878654977002620e-03 -2.6547314408416189e-03 0.0000000000000000e+00  -2.8184277846901970e-03 -3.1590972387618046e-03 0.0000000000000000e+00  -2.6423720642236889e-03 -2.6782076441807514e-03 0.0000000000000000e+00  -3.0577125798091800e-03 -3.1459811732263234e-03 0.0000000000000000e+00  -2.6325668998632146e-03 -2.9383442209951413e-03 0.0000000000000000e+00  -3.0027562110362706e-03 -2.7046264799608075e-03 0.0000000000000000e+00  -2.6358633050480675e-03 -3.1709263955409122e-03 0.0000000000000000e+00  -2.7293761670116302e-03 -2.7355930375266213e-03 0.0000000000000000e+00  -3.0326108737620872e-03 -3.0936589621795170e-03 0.0000000000000000e+00  -3.1264208177899972e-03 -3.0875015188295643e-03 0.0000000000000000e+00  -2.6544400198363839e-03 -2.7948837980227496e-03 0.0000000000000000e+00  -2.9168711923597654e-03 -3.1130960145777978e-03 0.0000000000000000e+00  -2.8408483430718860e-03 -2.6913169710976862e-03 0.0000000000000000e+00  -2.6484255905552356e-03 -2.8840916769598615e-03 0.0000000000000000e+00  -3.0446105349244837e-03 -2.8840835551584296e-03 0.0000000000000000e+00  -2.8408504650727336e-03 -3.0874950633646664e-03 0.0000000000000000e+00  -2.8388299871870684e-03 -2.6878246820506049e-03 0.0000000000000000e+00  -2.6260986805209819e-03 -2.6264008028939029e-03 0.0000000000000000e+00  -3.1408367700917466e-03 -3.1756021900281989e-03 0.0000000000000000e+00  -2.8408281823250367e-03 -3.1131295996600938e-03 0.0000000000000000e+00  -2.8408280731095697e-03 -2.7169269668577013e-03 0.0000000000000000e+00  -2.8408483430718860e-03 -2.6913169710976862e-03 0.0000000000000000e+00  -2.8408504650727336e-03 -3.0874950633646664e-03 0.0000000000000000e+00  -2.6757335621325580e-03 -2.8840679731097756e-03 0.0000000000000000e+00  -3.0719405585192508e-03 -2.8840633834612355e-03 0.0000000000000000e+00  -2.6757335621325580e-03 -2.8840679731097756e-03 0.0000000000000000e+00  -2.8408280731095697e-03 -2.7169269668577013e-03 0.0000000000000000e+00  -2.6484255905552356e-03 -2.8840916769598615e-03 0.0000000000000000e+00  -3.0446105349244837e-03 -2.8840835551584296e-03 0.0000000000000000e+00  -2.8408281823250367e-03 -3.1131295996600938e-03 0.0000000000000000e+00  -3.0719405585192508e-03 -2.8840633834612355e-03 0.0000000000000000e+00  -2.6541508786776563e-03 -2.6400501909947249e-03 0.0000000000000000e+00  -3.0393372167837958e-03 -2.9767794109729403e-03 0.0000000000000000e+00  -3.1288004142750359e-03 -2.7853127867045655e-03 0.0000000000000000e+00  -3.1390791678275170e-03 -2.6453349556462779e-03 0.0000000000000000e+00  -3.0079638179048942e-03 -2.6225153850359035e-03 0.0000000000000000e+00  -3.0271877567986266e-03 -2.6245649453134645e-03 0.0000000000000000e+00  -2.5857312936325787e-03 -3.1480125921930671e-03 0.0000000000000000e+00  -2.6992790656830750e-03 -3.1810308580357289e-03 0.0000000000000000e+00  -3.0557286689060922e-03 -2.9183644362204076e-03 0.0000000000000000e+00  -2.7482042253247226e-03 -3.0456166071097450e-03 0.0000000000000000e+00  -2.5883665813003919e-03 -3.0826866258435877e-03 0.0000000000000000e+00  -3.1106345693636050e-03 -2.8458051486249169e-03 0.0000000000000000e+00  -3.1232322338579539e-03 -2.7489152064736882e-03 0.0000000000000000e+00  -2.5939658106469421e-03 -2.7464542427206983e-03 0.0000000000000000e+00  -2.6959739906417513e-03 -2.6289932261493675e-03 0.0000000000000000e+00  -2.5796104577077150e-03 -2.6290172762337043e-03 0.0000000000000000e+00  -3.1311956796310132e-03 -3.0427792456373414e-03 0.0000000000000000e+00  -3.0229685932040952e-03 -3.0659281906214061e-03 0.0000000000000000e+00  -3.0131456944209527e-03 -3.1817461639884548e-03 0.0000000000000000e+00  -2.7069714597532128e-03 -3.0261662196851328e-03 0.0000000000000000e+00  -2.6926583883279016e-03 -2.7357171849950773e-03 0.0000000000000000e+00  -2.5843337260028467e-03 -2.8519991612851159e-03 0.0000000000000000e+00  -2.9228334218619140e-03 -3.1817878369401510e-03 0.0000000000000000e+00  -2.6590691109913138e-03 -3.1356036282641441e-03 0.0000000000000000e+00  -2.5857124301356619e-03 -3.1814646363021192e-03 0.0000000000000000e+00  -2.7222764273474422e-03 -3.1541014727597873e-03 0.0000000000000000e+00  -2.6908179066818028e-03 -3.0402146809585793e-03 0.0000000000000000e+00  -3.1283341857034882e-03 -2.6214608388059513e-03 0.0000000000000000e+00  -3.1116079555841398e-03 -2.7653962562317093e-03 0.0000000000000000e+00  -2.9973462433973037e-03 -2.7333027046688566e-03 0.0000000000000000e+00  -2.5939507725700485e-03 -3.0062833237329595e-03 0.0000000000000000e+00  -3.1349899132609035e-03 -2.7047821017328446e-03 0.0000000000000000e+00  -2.5878016136361612e-03 -3.0337264736957342e-03 0.0000000000000000e+00  -3.1397634595723934e-03 -3.1681294020442894e-03 0.0000000000000000e+00  -2.7708071012097673e-03 -2.9975989861235363e-03 0.0000000000000000e+00  -2.9544608460604798e-03 -2.8117335783291574e-03 0.0000000000000000e+00  -2.9852350762834320e-03 -2.7737165337303957e-03 0.0000000000000000e+00  -2.9852407595604151e-03 -2.9970836291444650e-03 0.0000000000000000e+00  -2.9527298954043430e-03 -2.6364535489343697e-03 0.0000000000000000e+00  -3.1298412940053487e-03 -3.1035477249983226e-03 0.0000000000000000e+00  -3.1304627778068659e-03 -3.1104379584552810e-03 0.0000000000000000e+00  -2.8972751977718860e-03 -3.0626823422775385e-03 0.0000000000000000e+00  -2.5818421422296694e-03 -3.1503598768344958e-03 0.0000000000000000e+00  -2.5816150793455520e-03 -2.6796443378645941e-03 0.0000000000000000e+00  -2.6087383780293936e-03 -2.8840689692282845e-03 0.0000000000000000e+00  -2.7017598156905630e-03 -2.6265413281598838e-03 0.0000000000000000e+00  -3.0509816098672447e-03 -3.1324528103862698e-03 0.0000000000000000e+00  -2.8408315278786651e-03 -3.1679838882501484e-03 0.0000000000000000e+00  -3.0974812693235071e-03 -2.6250383330667206e-03 0.0000000000000000e+00  -2.7708133637158617e-03 -2.8840552753058839e-03 0.0000000000000000e+00  -2.7205956926216117e-03 -2.7553598297004656e-03 0.0000000000000000e+00  -2.8582950830069623e-03 -2.6783159285572022e-03 0.0000000000000000e+00  -2.6271060722407131e-03 -2.6920805471243843e-03 0.0000000000000000e+00  -2.5929740045280507e-03 -2.8265070950472177e-03 0.0000000000000000e+00  -2.7380051047746941e-03 -2.8759224255385431e-03 0.0000000000000000e+00  -2.7823148784339707e-03 -3.1453768702080745e-03 0.0000000000000000e+00  -3.1055140545731036e-03 -3.1826636919879896e-03 0.0000000000000000e+00  -2.9600608163630753e-03 -3.1605310312610158e-03 0.0000000000000000e+00  -2.9135334525183668e-03 -2.6315866335529952e-03 0.0000000000000000e+00  -2.9544648410076081e-03 -2.6640780886311170e-03 0.0000000000000000e+00  -2.8408368741469777e-03 -3.1541121649354092e-03 0.0000000000000000e+00  -2.9031742433096542e-03 -2.7829807569745169e-03 0.0000000000000000e+00  -2.5816915014626857e-03 -2.9609201048669360e-03 0.0000000000000000e+00  -2.9495304675585701e-03 -2.8840829415774051e-03 0.0000000000000000e+00  -3.1016730434701260e-03 -2.6470466793894224e-03 0.0000000000000000e+00  -3.0793349345057922e-03 -2.6493106613176024e-03 0.0000000000000000e+00  -2.6014187832988072e-03 -2.6307345253044636e-03 0.0000000000000000e+00  -2.8408269288499708e-03 -3.0261579567679680e-03 0.0000000000000000e+00  -2.9736684631506399e-03 -3.0822729885825913e-03 0.0000000000000000e+00  -2.7126680792375832e-03 -3.1307838432882229e-03 0.0000000000000000e+00  -2.5951017782579375e-03 -2.6710258491691279e-03 0.0000000000000000e+00  -3.0877571136992492e-03 -3.1587178224258342e-03 0.0000000000000000e+00  -2.7163957215630709e-03 -3.1829073763478197e-03 0.0000000000000000e+00  -2.6235378457599981e-03 -3.1062695892838310e-03 0.0000000000000000e+00  -3.1266737846952562e-03 -2.9161484261572349e-03 0.0000000000000000e+00  -2.6027002003070373e-03 -2.7588576816932561e-03 0.0000000000000000e+00  -3.0965082093084915e-03 -3.0240255357264433e-03 0.0000000000000000e+00  -2.7085055351772332e-03 -2.6495814600368960e-03 0.0000000000000000e+00  -2.7130736776588911e-03 -2.7009778421189586e-03 0.0000000000000000e+00  -2.6467698448214877e-03 -2.9245554860200655e-03 0.0000000000000000e+00  -2.8408234099820294e-03 -2.8117401940424116e-03 0.0000000000000000e+00  -2.7330411352881447e-03 -2.8674978486585108e-03 0.0000000000000000e+00  -3.1387326206957261e-03 -2.9926715452843126e-03 0.0000000000000000e+00  -3.0838276649627306e-03 -3.0096426875043649e-03 0.0000000000000000e+00  -2.8408490854586388e-03 -2.9926739391803125e-03 0.0000000000000000e+00  -3.0635396476136911e-03 -2.7912013212859979e-03 0.0000000000000000e+00  -2.9567601353592660e-03 -3.1557774731746893e-03 0.0000000000000000e+00  -3.1403346967164942e-03 -2.7130909905504308e-03 0.0000000000000000e+00  -2.5807257296001944e-03 -3.0941266766438776e-03 0.0000000000000000e+00  -2.6393253529695647e-03 -3.0515955529463678e-03 0.0000000000000000e+00  -2.6291124388960851e-03 -2.6796520647000719e-03 0.0000000000000000e+00  -2.8408353743242533e-03 -2.6503197267838921e-03 0.0000000000000000e+00  -2.9689253700852648e-03 -3.1443584006602605e-03 0.0000000000000000e+00  -2.6550667532925509e-03 -2.8079945811231156e-03 0.0000000000000000e+00  -2.9752141868177426e-03 -2.9849118494948675e-03 0.0000000000000000e+00  -2.6360255968691398e-03 -3.1579812655330303e-03 0.0000000000000000e+00  -2.6428714999334646e-03 -3.1750333972710054e-03 0.0000000000000000e+00  -2.8408315278786651e-03 -3.1679838882501484e-03 0.0000000000000000e+00  -2.8056412338715499e-03 -3.1829396285427795e-03 0.0000000000000000e+00  -3.0844757303111836e-03 -2.9894080858988230e-03 0.0000000000000000e+00  -3.1404926670576660e-03 -2.8682529097704174e-03 0.0000000000000000e+00  -3.1078109320064407e-03 -3.0270269068391835e-03 0.0000000000000000e+00  -2.6405712873550104e-03 -2.9975964725846129e-03 0.0000000000000000e+00  -3.1240153711115906e-03 -2.6912519889397421e-03 0.0000000000000000e+00  -2.8408560199385687e-03 -2.7782752249500796e-03 0.0000000000000000e+00  -2.9495304675585701e-03 -2.8840829415774051e-03 0.0000000000000000e+00  -2.7351235553033817e-03 -2.8840972409659117e-03 0.0000000000000000e+00  -2.8408490854586388e-03 -2.9926739391803125e-03 0.0000000000000000e+00  -2.8740505483033883e-03 -2.7734774687319065e-03 0.0000000000000000e+00  -2.9524058367170467e-03 -2.6883616787376457e-03 0.0000000000000000e+00  -2.7311039337977322e-03 -2.6722517319208113e-03 0.0000000000000000e+00  -2.6275191987975444e-03 -2.6215307030270484e-03 0.0000000000000000e+00  -2.7325437558074757e-03 -2.6246803991930769e-03 0.0000000000000000e+00  -3.1271800291263244e-03 -3.1829241015311253e-03 0.0000000000000000e+00  -2.8408560199385687e-03 -2.7782752249500796e-03 0.0000000000000000e+00  -2.7351235553033817e-03 -2.8840972409659117e-03 0.0000000000000000e+00  -3.1390631299448202e-03 -3.1222614881037231e-03 0.0000000000000000e+00  -2.5911044725474381e-03 -2.6506270657585106e-03 0.0000000000000000e+00  -2.5980520761369036e-03 -2.7544982824154367e-03 0.0000000000000000e+00  -2.8011581558336986e-03 -2.6345056888666405e-03 0.0000000000000000e+00  -2.9183880520242994e-03 -2.6341887875855718e-03 0.0000000000000000e+00  -2.9876097439994901e-03 -2.8459766935974751e-03 0.0000000000000000e+00  -2.9526551444638742e-03 -2.9236976789135428e-03 0.0000000000000000e+00  -2.8794845224192444e-03 -2.9927487516580474e-03 0.0000000000000000e+00  -2.8408353743242533e-03 -2.6503197267838921e-03 0.0000000000000000e+00  -2.8408404833498335e-03 -2.6364585088644830e-03 0.0000000000000000e+00  -2.9852323537334679e-03 -2.8840632463944158e-03 0.0000000000000000e+00  -2.8408234099820294e-03 -2.8117401940424116e-03 0.0000000000000000e+00  -2.6087383780293936e-03 -2.8840689692282845e-03 0.0000000000000000e+00  -2.7708133637158617e-03 -2.8840552753058839e-03 0.0000000000000000e+00  -2.5939587331686230e-03 -2.8840773388235249e-03 0.0000000000000000e+00  -2.8408368741469777e-03 -3.1541121649354092e-03 0.0000000000000000e+00  -2.8408269288499708e-03 -3.0261579567679680e-03 0.0000000000000000e+00  -2.8408404833498335e-03 -2.6364585088644830e-03 0.0000000000000000e+00  -2.5939587331686230e-03 -2.8840773388235249e-03 0.0000000000000000e+00  -2.9852323537334679e-03 -2.8840632463944158e-03 0.0000000000000000e+00  -3.1264090842966948e-03 -2.8840698741033157e-03 0.0000000000000000e+00  -3.1116169712565546e-03 -2.8840831625569696e-03 0.0000000000000000e+00  -3.1264090842966948e-03 -2.8840698741033157e-03 0.0000000000000000e+00  -3.1116169712565546e-03 -2.8840831625569696e-03 0.0000000000000000e+00  -3.1125597170151460e-03 -3.1510958691459423e-03 0.0000000000000000e+00  -3.0412446984811304e-03 -2.8638292391705957e-03 0.0000000000000000e+00  -3.0707112326266183e-03 -2.7797392279110171e-03 0.0000000000000000e+00  -2.9521462569174891e-03 -2.9952752097640450e-03 0.0000000000000000e+00  -3.1099946968189299e-03 -2.6588793704776167e-03 0.0000000000000000e+00  -3.1351366723180352e-03 -2.6218021770754952e-03 0.0000000000000000e+00  -3.1323031810260981e-03 -2.6561085188611883e-03 0.0000000000000000e+00  -2.7393570148970372e-03 -2.6685939216300148e-03 0.0000000000000000e+00  -2.5795386718737343e-03 -2.7804869313333360e-03 0.0000000000000000e+00  -3.1371667086487020e-03 -2.6461653350666687e-03 0.0000000000000000e+00  -2.9755745131164087e-03 -3.1593131341675885e-03 0.0000000000000000e+00  -2.7175198516872340e-03 -3.1718753079226399e-03 0.0000000000000000e+00  -2.8194665525132175e-03 -3.0803618867236240e-03 0.0000000000000000e+00  -3.1223258020840563e-03 -3.1626636624806945e-03 0.0000000000000000e+00  -2.5794558663059901e-03 -2.6247334273878388e-03 0.0000000000000000e+00  -2.5830281390594990e-03 -3.1535995905187112e-03 0.0000000000000000e+00  -2.5816222940600385e-03 -3.0836105274665800e-03 0.0000000000000000e+00  -3.0506873504707321e-03 -3.1588519763827688e-03 0.0000000000000000e+00  -2.6424678592748998e-03 -3.1746099679131434e-03 0.0000000000000000e+00  -3.0393118768300372e-03 -2.6281990090690367e-03 0.0000000000000000e+00  -2.6104860705947037e-03 -3.1017759372891219e-03 0.0000000000000000e+00  -2.5828704098460938e-03 -3.1804016275727570e-03 0.0000000000000000e+00  -2.9412391556009523e-03 -2.6216196997318345e-03 0.0000000000000000e+00  -3.1364429721584476e-03 -3.1816300198062495e-03 0.0000000000000000e+00  -3.0390346903669675e-03 -2.6562764072418032e-03 0.0000000000000000e+00  -3.0586441547197489e-03 -3.0793234479209357e-03 0.0000000000000000e+00  -3.0080197437131503e-03 -2.6321480494951219e-03 0.0000000000000000e+00  -3.0054412275383534e-03 -2.6480082590075978e-03 0.0000000000000000e+00  -2.6404622650672413e-03 -2.6893698510505547e-03 0.0000000000000000e+00  -2.6204484941369801e-03 -3.1819566587829476e-03 0.0000000000000000e+00  -2.8249567550018462e-03 -2.8390578198558775e-03 0.0000000000000000e+00  -3.0928232036911852e-03 -3.0773743363045397e-03 0.0000000000000000e+00  -2.9366898104421350e-03 -3.0788073963540922e-03 0.0000000000000000e+00  -3.0768213090150640e-03 -2.7061367703808017e-03 0.0000000000000000e+00  -3.1298051270298244e-03 -3.1645673547188577e-03 0.0000000000000000e+00  -2.9366866388291870e-03 -2.7277930235001316e-03 0.0000000000000000e+00  -2.7517618492477400e-03 -2.7737194979276267e-03 0.0000000000000000e+00  -3.1331049233163616e-03 -3.0061950788007009e-03 0.0000000000000000e+00  -2.5857028699397037e-03 -3.1450129328453656e-03 0.0000000000000000e+00  -3.0334092795149454e-03 -3.0665147922009964e-03 0.0000000000000000e+00  -3.0322518431189342e-03 -3.1760848545008239e-03 0.0000000000000000e+00  -3.1347687975878638e-03 -2.7843309957334582e-03 0.0000000000000000e+00  -3.1406852672229576e-03 -2.7924172478755119e-03 0.0000000000000000e+00  -2.8129293564763684e-03 -3.1034610700930053e-03 0.0000000000000000e+00  -2.6859990200130820e-03 -2.9909018847397361e-03 0.0000000000000000e+00  -2.7882002726898631e-03 -2.9608300363510851e-03 0.0000000000000000e+00  -2.6000677334351444e-03 -2.6309392016514417e-03 0.0000000000000000e+00  -3.1018925111283863e-03 -2.7591418457784470e-03 0.0000000000000000e+00  -3.1409958081224250e-03 -3.1398267639781087e-03 0.0000000000000000e+00  -2.8201174697461040e-03 -2.7415777350647515e-03 0.0000000000000000e+00  -2.8746707127940961e-03 -3.1607262978941768e-03 0.0000000000000000e+00  -3.1195557245301559e-03 -2.9391876917729274e-03 0.0000000000000000e+00  -2.9289801094341877e-03 -3.1765397631202362e-03 0.0000000000000000e+00  -2.9203076238498173e-03 -3.1806736333293353e-03 0.0000000000000000e+00  -2.5890581771675410e-03 -2.6225202828860264e-03 0.0000000000000000e+00  -2.7270340344649350e-03 -3.1140250692814455e-03 0.0000000000000000e+00  -2.5897876982579385e-03 -2.6796524716939238e-03 0.0000000000000000e+00  -2.6165134149741887e-03 -2.8122107116916248e-03 0.0000000000000000e+00  -2.7020845307267889e-03 -3.1557816246122004e-03 0.0000000000000000e+00  -3.0904774432205049e-03 -2.6232173326178661e-03 0.0000000000000000e+00  -2.8916152975743633e-03 -3.1325663114255223e-03 0.0000000000000000e+00  -2.6516499450636205e-03 -2.7939584983625748e-03 0.0000000000000000e+00  -3.0207756896103730e-03 -3.1751840571669762e-03 0.0000000000000000e+00  -2.7574095871266088e-03 -2.9563536382952544e-03 0.0000000000000000e+00  -2.7627642570808900e-03 -3.0817943858939671e-03 0.0000000000000000e+00  -2.6412267890743575e-03 -3.0116293997694168e-03 0.0000000000000000e+00  -2.7292602508473419e-03 -2.6237092271999898e-03 0.0000000000000000e+00  -2.5999117833243497e-03 -3.0127893752035684e-03 0.0000000000000000e+00  -2.6131988560583693e-03 -2.7583264275736897e-03 0.0000000000000000e+00  -3.0974898081514214e-03 -2.8585920536742531e-03 0.0000000000000000e+00  -3.0178309609975073e-03 -2.6667873292726125e-03 0.0000000000000000e+00  -2.9341139636874050e-03 -2.6807036876934894e-03 0.0000000000000000e+00  -3.0048973221021421e-03 -3.1809950490234657e-03 0.0000000000000000e+00  -2.8766817168433580e-03 -3.1785546332803623e-03 0.0000000000000000e+00  -2.7714189633393622e-03 -2.6238767996701476e-03 0.0000000000000000e+00  -2.6354898009099408e