<?xml version="1.0"?>
<VTKFile type="UnstructuredGrid"  version="0.1"  >
<UnstructuredGrid>
<Piece  NumberOfPoints="1380" NumberOfCells="2630">
<Points>
<DataArray  type="Float64"  NumberOfComponents="3"  format="ascii">-1 -1 0  1 -1 0  1 1 0  -1 1 0  0 -1 0  1 0 0  0 1 0  -1 0 0  0 0 0  -1 -0.5 0  -0.5 -1 0  -0.5 1 0  -1 0.5 0  1 -0.5 0  0.5 -1 0  1 0.5 0  0.5 1 0  0.4166666666666666 -0.4166666666666667 0  -0.4166666666666667 0.4166666666666667 0  -0.25 -0.5 0  0.5 0.25 0  -0.4861111111111112 -0.06944444444444445 0  0.0732758620689655 0.507183908045977 0  -0.625 -0.625 0  0.625 0.625 0  0.7380952380952381 -0.25 0  -0.7099116161616161 0.2105429292929293 0  -0.25 0.7380952380952381 0  0.105392156862745 -0.6348039215686275 0  0.6770833333333334 -0.6770833333333333 0  -0.6770833333333334 0.6770833333333334 0  0.3472222222222222 -0.06944444444444446 0  -0.7264957264957265 -0.3044871794871795 0  0.3141940982507127 0.7297313660835709 0  0.02049587951122483 -0.3227479397556124 0  -0.2690972222222223 0.1475694444444444 0  0.3859500089908372 -0.7274430156831472 0  -0.2228477945123298 -0.1761765495248019 0  0.2182539682539683 0.1884920634920635 0  0.75 0.375 0  -0.145442219440968 -0.7602211097204841 0  0.7088913690476191 0.0427827380952381 0  -0.75 -1 0  -1 -0.75 0  1 0.75 0  0.75 1 0  -0.7439982703698937 -0.04614153195464455 0  -0.4609235096577606 -0.3356498099556895 0  0.4063134471431929 0.4895621842856023 0  0.25 -1 0  -0.25 -1 0  -0.75 1 0  0.75 -1 0  -1 -0.25 0  -1 0.25 0  1 -0.25 0  -0.25 1 0  1 -0.75 0  -1 0.75 0  0.25 1 0  1 0.25 0  -0.4041423272138783 -0.7597141090712928 0  0.06500839607911253 0.7578103030529481 0  -0.1572801182352047 0.3838997021864289 0  -0.6528005242053915 0.4409494757946086 0  -0.4930160984848485 0.1544744318181818 0  -0.4732142857142858 0.7752976190476191 0  0.6398809523809523 -0.4538690476190476 0  0.5166054117396399 -0.2161233620965164 0  -0.002273787244753427 0.2232363985975174 0  0.1500564496765022 -0.1524955293952667 0  0.2016720420046758 -0.4410343282803009 0  -0.08495178036419618 0.6274139771124571 0  -0.8367311471133162 0.3642591720794645 0  -0.8333333333333334 -0.625 0  -0.594323836800685 -0.8231079456002283 0  -0.4466957714776065 -0.5349126855671806 0  0.8125 0.5625 0  0.78125 0.78125 0  0.5091392650016769 0.7947130883338923 0  0.125 -0.8382681931833136 0  -0.8184523809523809 -0.8184523809523809 0  -0.07781530426104531 -0.5819319697006881 0  0.5085055196703295 0.04967610411902112 0  0.2918471072074933 -0.276017202318847 0  0.5120763537765269 -0.5898771553229597 0  0.625 -0.8585349462365591 0  0.8158532234335381 -0.8158532234335381 0  -0.5198088446315396 0.5739411553684605 0  -0.8585349462365591 0.625 0  -0.8150493805516597 0.8156205699829586 0  0.8585349462365591 -0.625 0  -0.2688268348649726 0.5439331383603209 0  0.8242100426758139 -0.4436043596336612 0  0.5833756314287952 0.4479378157143976 0  0.8690476190476191 -0.125 0  -0.125 0.8690476190476191 0  -0.8692745600729823 0.125 0  0.8696725120759167 0.125 0  -0.625 0.8711516477451908 0  0.2339522463269718 0.3879558377955778 0  0.2453709502295031 0.5655822922838026 0  0.1730610651637797 0.02021709580868947 0  0.3245402594056757 -0.5644672020485209 0  -0.7291666666666666 -0.4816595441595442 0  -1 -0.375 0  -0.5811140848639904 -0.2127276307675001 0  0.673332592838314 0.2158348143233718 0  0.375 1 0  -0.5714768890989919 0.2985103444040069 0  -1 -0.125 0  -0.8453692574786325 -0.1875 0  -0.3144549134065865 -0.02408675326008025 0  -0.2898414972096258 -0.3336092734780093 0  -0.1075052092206287 -0.4224330421314983 0  -0.05043970703604117 -0.1652278959397459 0  0.6459672950297897 -0.1113415301525317 0  0.4645210271029513 0.6398480556579343 0  0.3512863754411909 0.0937979496253573 0  -0.6063160985568274 0.03891469652249891 0  -0.3428819444444445 0.8690476190476191 0  0.625 1 0  -0.1602164796159982 0.02697860906625157 0  0.04648110064133829 -0.4808416424239687 0  1 0.875 0  -0.3836102479201657 0.6484936449177356 0  -0.3776011723096096 0.263078478984336 0  -0.6024978259969829 -0.3949628096211138 0  0.125 1 0  0.2010781308272777 0.8456221018461906 0  0.2822509696388829 -0.845902544691141 0  -0.3285533674953515 -0.6289773550938936 0  0.3461306793221754 0.278777492464833 0  0.4737475672408696 -0.8508448959534423 0  0.2384632828836344 -0.7029523187242811 0  -0.004777287059791593 0.3759269695907358 0  -0.8499735021850066 -0.3912320205328522 0  0.1222536293721587 0.2963971539625205 0  -0.3769456520999688 -0.203572526805711 0  -0.2749617205755651 -0.8464290792698902 0  0.004805888512766143 -0.747174355248311 0  -0.125 -1 0  -0.06001061822252458 -0.8724007765244854 0  0.875 0.4375 0  0.854421179608893 0.271342359217786 0  0.875 1 0  -0.1499861095763589 0.2358309656934888 0  0.3381943639137225 0.8663061796405532 0  -0.7853090110442228 0.4998412775277108 0  0.7398165998560814 -0.5535192694951373 0  0.1580042122341573 -0.3100246140259917 0  -0.7291666666666667 -0.7142857142857142 0  -0.375 -1 0  0.6483368386154684 0.8514905990110488 0  -0.1295370103291928 -0.2826118305021242 0  0.07458201853700455 0.1123894386563915 0  0.6146465857036327 -0.3161203659316075 0  0.5551898493894731 -0.740296118159085 0  0.375 -1 0  0.482702798370208 -0.084133350091034 0  0.87890625 0.68359375 0  -0.05917195534525846 0.4971092425697621 0  0.1260710309213975 0.6343750312956699 0  0.8690476190476191 -0.3077066815262848 0  -0.2912010232560567 0.3668168386732139 0  -0.875 1 0  -1 0.875 0  1 -0.875 0  0.875 -1 0  -0.8689564281364567 -0.006189266075306407 0  -0.7449425635110547 0.08458938160051771 0  -0.7150266761936593 -0.1739444581417552 0  -0.5260034831318311 -0.711099823962112 0  -0.4724626808827322 -0.871722230709409 0  0.4734436795977052 0.377714794132168 0  -0.875 -1 0  -1 -0.875 0  0.6927189078571988 0.5156567235715964 0  -0.3742497615796874 -0.4296005251260107 0  -0.1969436423297711 -0.6387157229772615 0  -0.6179496409766825 -0.08933356056510935 0  -0.424405057115988 0.04452428810878029 0  -0.08479048335844169 0.1279607007132633 0  0.003830300099055113 0.8712085230656206 0  0.8748778838820267 -1.379218479898026e-05 0  -0.375 1 0  -0.625 1 0  1 0.125 0  -0.125 1 0  1 -0.375 0  1 -0.125 0  1 -0.625 0  0.625 -1 0  0.125 -1 0  -0.625 -1 0  -1 -0.625 0  -1 0.125 0  -1 0.375 0  -1 0.625 0  1 0.375 0  1 0.625 0  0.6325660748712082 0.3335187599557389 0  -0.06420945895056573 0.7549874027425891 0  -0.8769015540914771 0.2478802253893416 0  0.871875 0.871875 0  -0.6868091492840067 0.3270978624973681 0  -0.5363597469565949 0.412994850055505 0  -0.6803734992638302 0.5574295000651103 0  -0.7076253581162534 -0.8803439094224437 0  -0.8778089002295137 -0.5106896447504627 0  -0.3860184984222981 0.530566778071246 0  0.6109900617121508 0.1128453077697081 0  0.3896945134930274 -0.1915382873255086 0  0.7605656944697778 -0.06822134873122943 0  0.3576151269893478 0.5948388411612135 0  -0.5689902680792265 -0.5143596830118065 0  0.6262446286847614 -0.5735657901943212 0  0.2030558252325225 -0.5625263842513452 0  0.6123273142928579 0.7407533260723429 0  0.4016460890123554 -0.3042863223111857 0  -0.59039693199147 0.7578418819188018 0  0.7276932493917544 -0.3705808024528924 0  0.5222536818742854 -0.4713886230400014 0  -0.5101986527137737 0.8848365765607674 0  0.510560172809238 0.5356013299918891 0  -0.3603569195756083 0.75823710606415 0  0.1967279277813232 0.728226870058472 0  -0.6086880986371127 0.1545624071548516 0  -0.38105366729386 0.1511189987807864 0  -0.2944659463671584 -0.7359061804869591 0  0.5060729154966499 -0.3475227845833823 0  -0.09281616240412746 -0.06197858250969457 0  0.7649739583333334 0.6673177083333334 0  0.7628906249999999 0.890234375 0  -0.2666864184909611 0.2585504071132311 0  0.3635064892129658 0.3878003602709461 0  -0.2339409722222222 0.8901937905844155 0  -0.1718792125974916 -0.8957733325456778 0  0.1001768566329531 0.4023510017391879 0  0.3120260172693757 -0.4540546875576884 0  0.7804062804433681 0.1896628610854537 0  0.4087715451998049 0.187961780041608 0  -0.1584963477271457 0.5451611892421655 0  -0.8926817849258324 0.463022006336401 0  0.2338091473445219 -0.07576267331277289 0  0.08171112182813692 -0.2349087687359925 0  0.04635385178956847 -0.1044635073718474 0  -0.4377391632114205 -0.6448874471423088 0  -0.1907678351227189 0.6480215912813945 0  0.300605946475244 0.4741444604171038 0  -0.2145033720757486 -0.06751709909419711 0  0.6069191921170397 -0.005492331448357812 0  0.0214718770761248 0.6032397936031719 0  0.5476675683364878 0.8992752415326501 0  0.4387475014316537 0.9093708953002239 0  -0.4932997685306436 -0.4381009159993523 0  0.2515197695339056 -0.1791673369138964 0  -0.7291666666666667 -0.6088789682539681 0  -0.9166666666666667 -0.6875 0  0.620579540363709 -0.2122431523583302 0  -0.484950136419973 0.6719440339397442 0  0.2857044415400258 0.0137589173127316 0  -0.8945708364098356 -0.288306105327986 0  0.4043102720140535 0.7842914560451557 0  0.04123256238752064 -0.9026968245801402 0  0.2003676884403109 -0.9091888601740487 0  0.1068775558538842 -0.7373377130403223 0  -0.4804566783514427 -0.1763307203045643 0  0.108286342087769 -0.3993789328997278 0  -0.191883080105361 -0.3640821726430649 0  -0.07025064492006244 0.2984876656890053 0  -0.7039324641409584 0.788312126296613 0  -0.7311286585775438 0.8932502354831682 0  0.5171409396884947 0.1503852691889257 0  0.4229392823658633 -0.003216522184234835 0  -0.5621736087218259 -0.919558629836806 0  -0.626474064879544 -0.7266572613636506 0  0.2446828746617422 0.2867616783302419 0  0.1759429608742923 0.4776611759306416 0  -0.3468240303741654 -0.5260416435617549 0  -0.7465808808425306 0.4069574477998361 0  -0.7819962170660292 0.2802441065650652 0  -0.3742623214119594 -0.8547800509641984 0  0.1014498009713561 0.8506721983266377 0  0.4285217620918213 -0.5230190595570253 0  0.4091738370487775 -0.6256346204225141 0  0.78125 0.46875 0  0.90625 0.53125 0  -0.4791801348852565 0.2553992655702126 0  0.7843318610782772 -0.7086046956885941 0  0.8909728264971901 -0.7355183796514634 0  0.7041908166528879 -0.7830649143180282 0  0.7311821352
[...]
<PointData  Vectors="f_22"> 
<DataArray  type="Float64"  Name="f_22"  NumberOfComponents="3" format="ascii">-1.8344152785066015e-02 -1.7198899572293373e-02 0.0000000000000000e+00  -1.8344152785066015e-02 -1.7198899572293373e-02 0.0000000000000000e+00  -1.8344152785066015e-02 -1.7198899572293373e-02 0.0000000000000000e+00  -1.8344152785066015e-02 -1.7198899572293373e-02 0.0000000000000000e+00  -1.8310432398666667e-02 -2.0367781322350280e-02 0.0000000000000000e+00  -2.1355258016362656e-02 -1.7165125208690020e-02 0.0000000000000000e+00  -1.8310432398666667e-02 -2.0367781322350280e-02 0.0000000000000000e+00  -2.1355258016362656e-02 -1.7165125208690020e-02 0.0000000000000000e+00  -2.1391025344815125e-02 -2.0403961903157172e-02 0.0000000000000000e+00  -1.4009822425722653e-02 -1.7180785475057490e-02 0.0000000000000000e+00  -1.8326069092647956e-02 -1.2969682308748585e-02 0.0000000000000000e+00  -1.8326069092647956e-02 -1.2969682308748585e-02 0.0000000000000000e+00  -2.5693926117758569e-02 -1.7180258771469083e-02 0.0000000000000000e+00  -1.4009822425722653e-02 -1.7180785475057490e-02 0.0000000000000000e+00  -1.8325951573187477e-02 -2.4601729622503152e-02 0.0000000000000000e+00  -2.5693926117758569e-02 -1.7180258771469083e-02 0.0000000000000000e+00  -1.8325951573187477e-02 -2.4601729622503152e-02 0.0000000000000000e+00  -1.4589875731180472e-02 -2.4802273904200194e-02 0.0000000000000000e+00  -2.5873408734215717e-02 -1.3569261680577475e-02 0.0000000000000000e+00  -1.4022286340803521e-02 -1.5817059703719338e-02 0.0000000000000000e+00  -2.5070165276817338e-02 -2.4611414974132523e-02 0.0000000000000000e+00  -2.0078809678438288e-02 -1.3049921267111611e-02 0.0000000000000000e+00  -2.5659606207730321e-02 -2.1676168664685618e-02 0.0000000000000000e+00  -1.3891114999170426e-02 -1.2818932561080553e-02 0.0000000000000000e+00  -2.4680251848555840e-02 -2.3559679088298358e-02 0.0000000000000000e+00  -1.6780857922288159e-02 -2.1936789698155452e-02 0.0000000000000000e+00  -2.4626752110280377e-02 -1.3189971578988479e-02 0.0000000000000000e+00  -2.3076247927201671e-02 -1.5789226251300432e-02 0.0000000000000000e+00  -1.3888182780625933e-02 -2.2180590822971559e-02 0.0000000000000000e+00  -1.4080087513396709e-02 -2.2864838507896012e-02 0.0000000000000000e+00  -2.3995452010750450e-02 -1.2993808415684269e-02 0.0000000000000000e+00  -2.0079394072978742e-02 -2.4687286248513032e-02 0.0000000000000000e+00  -1.5957871087475786e-02 -1.3341641713230020e-02 0.0000000000000000e+00  -2.3233781702679486e-02 -2.4525335026181285e-02 0.0000000000000000e+00  -1.5705090858191870e-02 -2.0766830818916122e-02 0.0000000000000000e+00  -2.3831365316410766e-02 -1.5501831100377854e-02 0.0000000000000000e+00  -1.4423499848812684e-02 -2.4778620560831820e-02 0.0000000000000000e+00  -1.8092687769680205e-02 -1.6279815393431197e-02 0.0000000000000000e+00  -2.4391902755375679e-02 -2.3723745357680154e-02 0.0000000000000000e+00  -2.5837238783664316e-02 -2.1769863533488164e-02 0.0000000000000000e+00  -1.4740130208653147e-02 -1.7649888249867927e-02 0.0000000000000000e+00  -2.2134610489407389e-02 -2.2405033789972870e-02 0.0000000000000000e+00  -1.8338416821311196e-02 -1.3555672527719640e-02 0.0000000000000000e+00  -1.4659421643401283e-02 -1.7193205547455060e-02 0.0000000000000000e+00  -2.2914893649641683e-02 -1.7192823999077903e-02 0.0000000000000000e+00  -1.8338592036562813e-02 -2.1772888839156231e-02 0.0000000000000000e+00  -2.0503994415255491e-02 -1.3475819719803503e-02 0.0000000000000000e+00  -1.5538219502284647e-02 -1.3225743062324073e-02 0.0000000000000000e+00  -2.5754651541624447e-02 -2.4830648805554023e-02 0.0000000000000000e+00  -1.8314764758369524e-02 -2.4019224212457151e-02 0.0000000000000000e+00  -1.8314812625821870e-02 -1.5791604371261581e-02 0.0000000000000000e+00  -1.8338416821311196e-02 -1.3555672527719640e-02 0.0000000000000000e+00  -1.8338592036562813e-02 -2.1772888839156231e-02 0.0000000000000000e+00  -1.6783016835866516e-02 -1.7169718867556492e-02 0.0000000000000000e+00  -2.5046859058164932e-02 -1.7169239116120318e-02 0.0000000000000000e+00  -1.6783016835866516e-02 -1.7169718867556492e-02 0.0000000000000000e+00  -1.8314812625821870e-02 -1.5791604371261581e-02 0.0000000000000000e+00  -1.4659421643401283e-02 -1.7193205547455060e-02 0.0000000000000000e+00  -2.2914893649641683e-02 -1.7192823999077903e-02 0.0000000000000000e+00  -1.8314764758369524e-02 -2.4019224212457151e-02 0.0000000000000000e+00  -2.5046859058164932e-02 -1.7169239116120318e-02 0.0000000000000000e+00  -1.4749895401211369e-02 -1.3713258566720682e-02 0.0000000000000000e+00  -2.2765448480094319e-02 -2.1523556559169620e-02 0.0000000000000000e+00  -2.5849619770078169e-02 -1.7437156185464167e-02 0.0000000000000000e+00  -2.5857607689471891e-02 -1.2870237959253638e-02 0.0000000000000000e+00  -2.3918020119177087e-02 -1.2999091973913411e-02 0.0000000000000000e+00  -2.2463146359101276e-02 -1.3113635742922441e-02 0.0000000000000000e+00  -1.4276106568512718e-02 -2.3345245678820459e-02 0.0000000000000000e+00  -1.7358559504091799e-02 -2.4495997207829173e-02 0.0000000000000000e+00  -2.4796770952890033e-02 -2.0359042690715812e-02 0.0000000000000000e+00  -1.8520431390480905e-02 -2.2863817666141824e-02 0.0000000000000000e+00  -1.4383496947163508e-02 -2.3513780060020001e-02 0.0000000000000000e+00  -2.4625116508692018e-02 -1.8787212473145336e-02 0.0000000000000000e+00  -2.5787406395377625e-02 -1.4518850092959940e-02 0.0000000000000000e+00  -1.3887548237643739e-02 -1.4506997652946798e-02 0.0000000000000000e+00  -1.5491844525822800e-02 -1.2769913195763493e-02 0.0000000000000000e+00  -1.3895705746627362e-02 -1.3334770059081416e-02 0.0000000000000000e+00  -2.5294927897598195e-02 -2.0693056648971055e-02 0.0000000000000000e+00  -2.2393751916759554e-02 -2.1249031545700521e-02 0.0000000000000000e+00  -2.2154257293219279e-02 -2.4562493330667602e-02 0.0000000000000000e+00  -1.5660584982576848e-02 -2.2474420766061987e-02 0.0000000000000000e+00  -1.5435965945694824e-02 -1.4317487578865922e-02 0.0000000000000000e+00  -1.3814870086201457e-02 -1.8931972629247281e-02 0.0000000000000000e+00  -2.2266569807383584e-02 -2.4556750104973938e-02 0.0000000000000000e+00  -1.6380452381889371e-02 -2.4372569810330008e-02 0.0000000000000000e+00  -1.3801359167758062e-02 -2.4517897419929539e-02 0.0000000000000000e+00  -1.5963329609590880e-02 -2.3541730414240795e-02 0.0000000000000000e+00  -1.5390914551193006e-02 -2.0624506872352826e-02 0.0000000000000000e+00  -2.5165988055899487e-02 -1.2866151635050430e-02 0.0000000000000000e+00  -2.4662877514852671e-02 -1.4836223222451039e-02 0.0000000000000000e+00  -2.1775790079617077e-02 -1.4262598306408171e-02 0.0000000000000000e+00  -1.3872708328581703e-02 -1.9830983822180664e-02 0.0000000000000000e+00  -2.5411652408785214e-02 -1.5488868172567350e-02 0.0000000000000000e+00  -1.4358690419752344e-02 -2.0453792294701362e-02 0.0000000000000000e+00  -2.5877087401219696e-02 -2.4001133498606855e-02 0.0000000000000000e+00  -1.9003904244796203e-02 -1.9622272729262324e-02 0.0000000000000000e+00  -2.0771371133753557e-02 -1.8021227148921608e-02 0.0000000000000000e+00  -2.3476737420952767e-02 -1.4976139512077463e-02 0.0000000000000000e+00  -2.3481051333426536e-02 -1.9617657225950443e-02 0.0000000000000000e+00  -2.0745055535475145e-02 -1.2800698574059457e-02 0.0000000000000000e+00  -2.5873798724803932e-02 -2.3887957245725899e-02 0.0000000000000000e+00  -2.5265797812588118e-02 -2.3995380645267822e-02 0.0000000000000000e+00  -2.1757205080200126e-02 -2.3179442779420977e-02 0.0000000000000000e+00  -1.3807130557483772e-02 -2.4563997073681208e-02 0.0000000000000000e+00  -1.4119622971752212e-02 -1.3372185072158080e-02 0.0000000000000000e+00  -1.5029338472395839e-02 -1.7174631947103128e-02 0.0000000000000000e+00  -1.7433060246558586e-02 -1.2761784564877643e-02 0.0000000000000000e+00  -2.4703673759589553e-02 -2.2930777155220936e-02 0.0000000000000000e+00  -1.8319779470329513e-02 -2.4766292973427001e-02 0.0000000000000000e+00  -2.5448443524068765e-02 -1.2743433524955555e-02 0.0000000000000000e+00  -1.9004161919704478e-02 -1.7166220221928423e-02 0.0000000000000000e+00  -1.7861682029769826e-02 -1.4646732826420188e-02 0.0000000000000000e+00  -2.0939471914135751e-02 -1.4822359899013425e-02 0.0000000000000000e+00  -1.5566614762750152e-02 -1.5191017351184591e-02 0.0000000000000000e+00  -1.4559069518252995e-02 -1.8379312325690643e-02 0.0000000000000000e+00  -1.8291495537733723e-02 -1.9465152427836623e-02 0.0000000000000000e+00  -1.9268425235459807e-02 -2.3275613723147077e-02 0.0000000000000000e+00  -2.4502897954890527e-02 -2.4756262416628740e-02 0.0000000000000000e+00  -2.3017076204321432e-02 -2.4709869654140723e-02 0.0000000000000000e+00  -2.2069193633842389e-02 -1.2758699030140241e-02 0.0000000000000000e+00  -2.0772540804847868e-02 -1.4408897745104619e-02 0.0000000000000000e+00  -1.8332453343813778e-02 -2.3550331526252043e-02 0.0000000000000000e+00  -2.1877757058411169e-02 -1.7397621554137131e-02 0.0000000000000000e+00  -1.4110692925082952e-02 -2.1216305731237162e-02 0.0000000000000000e+00  -2.0691858223998834e-02 -1.7197042600086559e-02 0.0000000000000000e+00  -2.4362283300522234e-02 -1.3911405661482430e-02 0.0000000000000000e+00  -2.5174170783162600e-02 -1.3989269249021786e-02 0.0000000000000000e+00  -1.4831632593119443e-02 -1.2777242265971871e-02 0.0000000000000000e+00  -1.8311554048846462e-02 -2.2474294370885078e-02 0.0000000000000000e+00  -2.1219345908186232e-02 -2.3504859193148708e-02 0.0000000000000000e+00  -1.5766813348306128e-02 -2.4290841918167834e-02 0.0000000000000000e+00  -1.3894294088336907e-02 -1.4623795609330361e-02 0.0000000000000000e+00  -2.5329050196633188e-02 -2.4694545845851353e-02 0.0000000000000000e+00  -1.5843477691066300e-02 -2.4704779827860384e-02 0.0000000000000000e+00  -1.4233120742216691e-02 -2.3904140844454635e-02 0.0000000000000000e+00  -2.5839205815605708e-02 -2.0306960549193086e-02 0.0000000000000000e+00  -1.4858832268661517e-02 -1.4722133125039893e-02 0.0000000000000000e+00  -2.5461025538953096e-02 -2.2464229919370086e-02 0.0000000000000000e+00  -1.7601184535925310e-02 -1.4017233003007449e-02 0.0000000000000000e+00  -1.5790224519331351e-02 -1.5398326759799205e-02 0.0000000000000000e+00  -1.4605029860723510e-02 -2.0462523339046041e-02 0.0000000000000000e+00  -1.8311520153473079e-02 -1.8021635218002426e-02 0.0000000000000000e+00  -1.6155879737981549e-02 -1.9252777255610452e-02 0.0000000000000000e+00  -2.5881582976523352e-02 -1.9532132545043757e-02 0.0000000000000000e+00  -2.5247182682406520e-02 -1.9910434597173045e-02 0.0000000000000000e+00  -1.8342626778106209e-02 -1.9541742783359274e-02 0.0000000000000000e+00  -2.4924300887463467e-02 -1.7579717341127406e-02 0.0000000000000000e+00  -2.0840351650893877e-02 -2.4644586183735211e-02 0.0000000000000000e+00  -2.5682953338157011e-02 -1.3889731682706475e-02 0.0000000000000000e+00  -1.3828403146231920e-02 -2.1913527050591096e-02 0.0000000000000000e+00  -1.5878059002011058e-02 -2.2966554868186252e-02 0.0000000000000000e+00  -1.4355192453209585e-02 -1.3377240680133073e-02 0.0000000000000000e+00  -1.8319860100525335e-02 -1.4017687349976932e-02 0.0000000000000000e+00  -2.1129018539319623e-02 -2.3272349086380754e-02 0.0000000000000000e+00  -1.6295513061528301e-02 -1.7969461493295261e-02 0.0000000000000000e+00  -2.3316950795985655e-02 -2.1710243867638881e-02 0.0000000000000000e+00  -1.5774366892759160e-02 -2.3642470181976988e-02 0.0000000000000000e+00  -1.4542612245949885e-02 -2.4225193604944774e-02 0.0000000000000000e+00  -1.8319779470329513e-02 -2.4766292973427001e-02 0.0000000000000000e+00  -1.9792897942535363e-02 -2.4674331174445851e-02 0.0000000000000000e+00  -2.3929591735757556e-02 -1.9467293997698344e-02 0.0000000000000000e+00  -2.5702541841896378e-02 -1.9283208563499975e-02 0.0000000000000000e+00  -2.4554561242653671e-02 -2.2506715365693857e-02 0.0000000000000000e+00  -1.5893261666866228e-02 -1.9622484788962367e-02 0.0000000000000000e+00  -2.5800182500147702e-02 -1.5147493608837336e-02 0.0000000000000000e+00  -1.8342686934255007e-02 -1.5098108382449649e-02 0.0000000000000000e+00  -2.0691858223998834e-02 -1.7197042600086559e-02 0.0000000000000000e+00  -1.6227082740782290e-02 -1.7197435941440853e-02 0.0000000000000000e+00  -1.8342626778106209e-02 -1.9541742783359274e-02 0.0000000000000000e+00  -2.1243660327488773e-02 -1.4974430862135273e-02 0.0000000000000000e+00  -2.2841287324247242e-02 -1.3478489249579900e-02 0.0000000000000000e+00  -1.8113306794909391e-02 -1.3244881982463649e-02 0.0000000000000000e+00  -1.4327694803327877e-02 -1.2873581955274807e-02 0.0000000000000000e+00  -1.6167155801930070e-02 -1.3134943770747129e-02 0.0000000000000000e+00  -2.5852924622922911e-02 -2.4728850934596699e-02 0.0000000000000000e+00  -1.8342686934255007e-02 -1.5098108382449649e-02 0.0000000000000000e+00  -1.6227082740782290e-02 -1.7197435941440853e-02 0.0000000000000000e+00  -2.5624211019904003e-02 -2.2667426056836890e-02 0.0000000000000000e+00  -1.4502878745196216e-02 -1.4050611864215929e-02 0.0000000000000000e+00  -1.3917353815784888e-02 -1.6719506689644097e-02 0.0000000000000000e+00  -1.9695170918257860e-02 -1.2783684641331190e-02 0.0000000000000000e+00  -2.2176985371340042e-02 -1.3511837259027545e-02 0.0000000000000000e+00  -2.3552210668488054e-02 -1.8813542997377791e-02 0.0000000000000000e+00  -2.0733508698348120e-02 -2.0440091258888508e-02 0.0000000000000000e+00  -2.1356712036220804e-02 -1.9515380511519517e-02 0.0000000000000000e+00  -1.8319860100525335e-02 -1.4017687349976932e-02 0.0000000000000000e+00  -1.8332420746338639e-02 -1.2807601980550533e-02 0.0000000000000000e+00  -2.3477013814430632e-02 -1.7166173470880609e-02 0.0000000000000000e+00  -1.8311520153473079e-02 -1.8021635218002426e-02 0.0000000000000000e+00  -1.5029338472395839e-02 -1.7174631947103128e-02 0.0000000000000000e+00  -1.9004161919704478e-02 -1.7166220221928423e-02 0.0000000000000000e+00  -1.3880401181971751e-02 -1.7187141726301400e-02 0.0000000000000000e+00  -1.8332453343813778e-02 -2.3550331526252043e-02 0.0000000000000000e+00  -1.8311554048846462e-02 -2.2474294370885078e-02 0.0000000000000000e+00  -1.8332420746338639e-02 -1.2807601980550533e-02 0.0000000000000000e+00  -1.3880401181971751e-02 -1.7187141726301400e-02 0.0000000000000000e+00  -2.3477013814430632e-02 -1.7166173470880609e-02 0.0000000000000000e+00  -2.5825675336859404e-02 -1.7174205706715302e-02 0.0000000000000000e+00  -2.4671402066166467e-02 -1.7186935861885570e-02 0.0000000000000000e+00  -2.5825675336859404e-02 -1.7174205706715302e-02 0.0000000000000000e+00  -2.4671402066166467e-02 -1.7186935861885570e-02 0.0000000000000000e+00  -2.5682071372506776e-02 -2.3464206943771646e-02 0.0000000000000000e+00  -2.2806374654172044e-02 -1.9174959491965380e-02 0.0000000000000000e+00  -2.5023697275848612e-02 -1.5089890782107871e-02 0.0000000000000000e+00  -2.0752022884771817e-02 -1.9601633997882978e-02 0.0000000000000000e+00  -2.5624119946485134e-02 -1.3037425980190915e-02 0.0000000000000000e+00  -2.5870828600530679e-02 -1.2808859887403627e-02 0.0000000000000000e+00  -2.5310324495865552e-02 -1.3005892852204598e-02 0.0000000000000000e+00  -1.6307268287954892e-02 -1.3209079964048631e-02 0.0000000000000000e+00  -1.3969207851728302e-02 -1.5131107451214388e-02 0.0000000000000000e+00  -2.5501450706516327e-02 -1.3885288051985583e-02 0.0000000000000000e+00  -2.3307694671161200e-02 -2.3702160919701093e-02 0.0000000000000000e+00  -1.7797361665924851e-02 -2.4794460995962490e-02 0.0000000000000000e+00  -2.0081770046384808e-02 -2.1571424429990181e-02 0.0000000000000000e+00  -2.4999500219915014e-02 -2.4733374862868834e-02 0.0000000000000000e+00  -1.3964759196450464e-02 -1.2779850253650048e-02 0.0000000000000000e+00  -1.3803706961774973e-02 -2.3511957853363730e-02 0.0000000000000000e+00  -1.3812329274741703e-02 -2.3524987606794352e-02 0.0000000000000000e+00  -2.3067837436581199e-02 -2.3702308806198637e-02 0.0000000000000000e+00  -1.5949612854687632e-02 -2.4801970654412950e-02 0.0000000000000000e+00  -2.2761194477567252e-02 -1.2747112653552871e-02 0.0000000000000000e+00  -1.5072807545510609e-02 -2.2102203498358668e-02 0.0000000000000000e+00  -1.4154621043273443e-02 -2.4455338268419054e-02 0.0000000000000000e+00  -2.0482617612654328e-02 -1.2916341599557539e-02 0.0000000000000000e+00  -2.5501566829367012e-02 -2.4559664394972626e-02 0.0000000000000000e+00  -2.2747542001511262e-02 -1.4185610376150482e-02 0.0000000000000000e+00  -2.3251445706653252e-02 -2.3459066214874719e-02 0.0000000000000000e+00  -2.3914151627737103e-02 -1.2756333949142738e-02 0.0000000000000000e+00  -2.3876293026695687e-02 -1.3954834620159786e-02 0.0000000000000000e+00  -1.4519329910243092e-02 -1.5106146591266986e-02 0.0000000000000000e+00  -1.5355863092263826e-02 -2.4551890455743432e-02 0.0000000000000000e+00  -2.0231982429423988e-02 -1.8664372904109574e-02 0.0000000000000000e+00  -2.4154189158142960e-02 -2.1527376967859106e-02 0.0000000000000000e+00  -2.0404876373898369e-02 -2.1561647348343847e-02 0.0000000000000000e+00  -2.5138679924482960e-02 -1.5535090696770486e-02 0.0000000000000000e+00  -2.5875225521998408e-02 -2.4756180221419028e-02 0.0000000000000000e+00  -2.0373464183272166e-02 -1.6056974909196380e-02 0.0000000000000000e+00  -1.6520531292760578e-02 -1.7156025402616081e-02 0.0000000000000000e+00  -2.5889196131765522e-02 -2.2119099496060560e-02 0.0000000000000000e+00  -1.4278075765152401e-02 -2.4496596553590318e-02 0.0000000000000000e+00  -2.4385030629952065e-02 -2.1244875747270894e-02 0.0000000000000000e+00  -2.4381762545176516e-02 -2.4828305607875970e-02 0.0000000000000000e+00  -2.5407030755283118e-02 -1.7406739156099159e-02 0.0000000000000000e+00  -2.5823630451238894e-02 -1.5339119244542952e-02 0.0000000000000000e+00  -1.9964387439730742e-02 -2.3881462492213013e-02 0.0000000000000000e+00  -1.7057267164979385e-02 -2.1821271349596435e-02 0.0000000000000000e+00  -1.9425340726061467e-02 -2.1229341903743967e-02 0.0000000000000000e+00  -1.3950938422711910e-02 -1.3405514837567663e-02 0.0000000000000000e+00  -2.4371804207236791e-02 -1.6813930017492131e-02 0.0000000000000000e+00  -2.5810462687894623e-02 -2.4449635280905088e-02 0.0000000000000000e+00  -2.0125698604142865e-02 -1.6423062095883102e-02 0.0000000000000000e+00  -2.1267894322113109e-02 -2.3739991671996256e-02 0.0000000000000000e+00  -2.4897374642154552e-02 -2.0772086900870377e-02 0.0000000000000000e+00  -2.0226792876559863e-02 -2.4304195672192542e-02 0.0000000000000000e+00  -2.0030269142771791e-02 -2.4802366899419368e-02 0.0000000000000000e+00  -1.4431082415108780e-02 -1.3022356422176530e-02 0.0000000000000000e+00  -1.8026840360289478e-02 -2.4048364059437607e-02 0.0000000000000000e+00  -1.3855435744381301e-02 -1.3376119747800544e-02 0.0000000000000000e+00  -1.4164199706616261e-02 -1.5747108344275035e-02 0.0000000000000000e+00  -1.7421714656194097e-02 -2.3577980694394096e-02 0.0000000000000000e+00  -2.4057647448498150e-02 -1.3038118443435770e-02 0.0000000000000000e+00  -2.1636900467383546e-02 -2.4341358354451271e-02 0.0000000000000000e+00  -1.6186642035781747e-02 -1.5375181629615443e-02 0.0000000000000000e+00  -2.2332403790253301e-02 -2.4820801198535542e-02 0.0000000000000000e+00  -1.6623505063909035e-02 -2.1106779344204653e-02 0.0000000000000000e+00  -1.6727894208481149e-02 -2.3488794440508109e-02 0.0000000000000000e+00  -1.4510855681498689e-02 -2.2200017546727586e-02 0.0000000000000000e+00  -1.8083271019049590e-02 -1.3089256906715524e-02 0.0000000000000000e+00  -1.4772613052793463e-02 -2.2236967586762264e-02 0.0000000000000000e+00  -1.5179202752947586e-02 -1.6821882780385562e-02 0.0000000000000000e+00  -2.5468723783030240e-02 -1.9083261078571032e-02 0.0000000000000000e+00  -2.2250756991857842e-02 -1.3166534108146988e-02 0.0000000000000000e+00  -2.0336195399427985e-02 -1.3381995191443247e-02 0.0000000000000000e+00  -2.3872645618070645e-02 -2.4511700044357376e-02 0.0000000000000000e+00  -2.1319827944450882e-02 -2.4818107225260243e-02 0.0000000000000000e+00  -1.6924703725260806e-02 -1.2777638227985338e-02 0.0000000000000000e+00  -1.4453810083573720e