<?xml version="1.0"?>
<VTKFile type="UnstructuredGrid"  version="0.1"  >
<UnstructuredGrid>
<Piece  NumberOfPoints="1380" NumberOfCells="2630">
<Points>
<DataArray  type="Float64"  NumberOfComponents="3"  format="ascii">-1 -1 0  1 -1 0  1 1 0  -1 1 0  0 -1 0  1 0 0  0 1 0  -1 0 0  0 0 0  -1 -0.5 0  -0.5 -1 0  -0.5 1 0  -1 0.5 0  1 -0.5 0  0.5 -1 0  1 0.5 0  0.5 1 0  0.4166666666666666 -0.4166666666666667 0  -0.4166666666666667 0.4166666666666667 0  -0.25 -0.5 0  0.5 0.25 0  -0.4861111111111112 -0.06944444444444445 0  0.0732758620689655 0.507183908045977 0  -0.625 -0.625 0  0.625 0.625 0  0.7380952380952381 -0.25 0  -0.7099116161616161 0.2105429292929293 0  -0.25 0.7380952380952381 0  0.105392156862745 -0.6348039215686275 0  0.6770833333333334 -0.6770833333333333 0  -0.6770833333333334 0.6770833333333334 0  0.3472222222222222 -0.06944444444444446 0  -0.7264957264957265 -0.3044871794871795 0  0.3141940982507127 0.7297313660835709 0  0.02049587951122483 -0.3227479397556124 0  -0.2690972222222223 0.1475694444444444 0  0.3859500089908372 -0.7274430156831472 0  -0.2228477945123298 -0.1761765495248019 0  0.2182539682539683 0.1884920634920635 0  0.75 0.375 0  -0.145442219440968 -0.7602211097204841 0  0.7088913690476191 0.0427827380952381 0  -0.75 -1 0  -1 -0.75 0  1 0.75 0  0.75 1 0  -0.7439982703698937 -0.04614153195464455 0  -0.4609235096577606 -0.3356498099556895 0  0.4063134471431929 0.4895621842856023 0  0.25 -1 0  -0.25 -1 0  -0.75 1 0  0.75 -1 0  -1 -0.25 0  -1 0.25 0  1 -0.25 0  -0.25 1 0  1 -0.75 0  -1 0.75 0  0.25 1 0  1 0.25 0  -0.4041423272138783 -0.7597141090712928 0  0.06500839607911253 0.7578103030529481 0  -0.1572801182352047 0.3838997021864289 0  -0.6528005242053915 0.4409494757946086 0  -0.4930160984848485 0.1544744318181818 0  -0.4732142857142858 0.7752976190476191 0  0.6398809523809523 -0.4538690476190476 0  0.5166054117396399 -0.2161233620965164 0  -0.002273787244753427 0.2232363985975174 0  0.1500564496765022 -0.1524955293952667 0  0.2016720420046758 -0.4410343282803009 0  -0.08495178036419618 0.6274139771124571 0  -0.8367311471133162 0.3642591720794645 0  -0.8333333333333334 -0.625 0  -0.594323836800685 -0.8231079456002283 0  -0.4466957714776065 -0.5349126855671806 0  0.8125 0.5625 0  0.78125 0.78125 0  0.5091392650016769 0.7947130883338923 0  0.125 -0.8382681931833136 0  -0.8184523809523809 -0.8184523809523809 0  -0.07781530426104531 -0.5819319697006881 0  0.5085055196703295 0.04967610411902112 0  0.2918471072074933 -0.276017202318847 0  0.5120763537765269 -0.5898771553229597 0  0.625 -0.8585349462365591 0  0.8158532234335381 -0.8158532234335381 0  -0.5198088446315396 0.5739411553684605 0  -0.8585349462365591 0.625 0  -0.8150493805516597 0.8156205699829586 0  0.8585349462365591 -0.625 0  -0.2688268348649726 0.5439331383603209 0  0.8242100426758139 -0.4436043596336612 0  0.5833756314287952 0.4479378157143976 0  0.8690476190476191 -0.125 0  -0.125 0.8690476190476191 0  -0.8692745600729823 0.125 0  0.8696725120759167 0.125 0  -0.625 0.8711516477451908 0  0.2339522463269718 0.3879558377955778 0  0.2453709502295031 0.5655822922838026 0  0.1730610651637797 0.02021709580868947 0  0.3245402594056757 -0.5644672020485209 0  -0.7291666666666666 -0.4816595441595442 0  -1 -0.375 0  -0.5811140848639904 -0.2127276307675001 0  0.673332592838314 0.2158348143233718 0  0.375 1 0  -0.5714768890989919 0.2985103444040069 0  -1 -0.125 0  -0.8453692574786325 -0.1875 0  -0.3144549134065865 -0.02408675326008025 0  -0.2898414972096258 -0.3336092734780093 0  -0.1075052092206287 -0.4224330421314983 0  -0.05043970703604117 -0.1652278959397459 0  0.6459672950297897 -0.1113415301525317 0  0.4645210271029513 0.6398480556579343 0  0.3512863754411909 0.0937979496253573 0  -0.6063160985568274 0.03891469652249891 0  -0.3428819444444445 0.8690476190476191 0  0.625 1 0  -0.1602164796159982 0.02697860906625157 0  0.04648110064133829 -0.4808416424239687 0  1 0.875 0  -0.3836102479201657 0.6484936449177356 0  -0.3776011723096096 0.263078478984336 0  -0.6024978259969829 -0.3949628096211138 0  0.125 1 0  0.2010781308272777 0.8456221018461906 0  0.2822509696388829 -0.845902544691141 0  -0.3285533674953515 -0.6289773550938936 0  0.3461306793221754 0.278777492464833 0  0.4737475672408696 -0.8508448959534423 0  0.2384632828836344 -0.7029523187242811 0  -0.004777287059791593 0.3759269695907358 0  -0.8499735021850066 -0.3912320205328522 0  0.1222536293721587 0.2963971539625205 0  -0.3769456520999688 -0.203572526805711 0  -0.2749617205755651 -0.8464290792698902 0  0.004805888512766143 -0.747174355248311 0  -0.125 -1 0  -0.06001061822252458 -0.8724007765244854 0  0.875 0.4375 0  0.854421179608893 0.271342359217786 0  0.875 1 0  -0.1499861095763589 0.2358309656934888 0  0.3381943639137225 0.8663061796405532 0  -0.7853090110442228 0.4998412775277108 0  0.7398165998560814 -0.5535192694951373 0  0.1580042122341573 -0.3100246140259917 0  -0.7291666666666667 -0.7142857142857142 0  -0.375 -1 0  0.6483368386154684 0.8514905990110488 0  -0.1295370103291928 -0.2826118305021242 0  0.07458201853700455 0.1123894386563915 0  0.6146465857036327 -0.3161203659316075 0  0.5551898493894731 -0.740296118159085 0  0.375 -1 0  0.482702798370208 -0.084133350091034 0  0.87890625 0.68359375 0  -0.05917195534525846 0.4971092425697621 0  0.1260710309213975 0.6343750312956699 0  0.8690476190476191 -0.3077066815262848 0  -0.2912010232560567 0.3668168386732139 0  -0.875 1 0  -1 0.875 0  1 -0.875 0  0.875 -1 0  -0.8689564281364567 -0.006189266075306407 0  -0.7449425635110547 0.08458938160051771 0  -0.7150266761936593 -0.1739444581417552 0  -0.5260034831318311 -0.711099823962112 0  -0.4724626808827322 -0.871722230709409 0  0.4734436795977052 0.377714794132168 0  -0.875 -1 0  -1 -0.875 0  0.6927189078571988 0.5156567235715964 0  -0.3742497615796874 -0.4296005251260107 0  -0.1969436423297711 -0.6387157229772615 0  -0.6179496409766825 -0.08933356056510935 0  -0.424405057115988 0.04452428810878029 0  -0.08479048335844169 0.1279607007132633 0  0.003830300099055113 0.8712085230656206 0  0.8748778838820267 -1.379218479898026e-05 0  -0.375 1 0  -0.625 1 0  1 0.125 0  -0.125 1 0  1 -0.375 0  1 -0.125 0  1 -0.625 0  0.625 -1 0  0.125 -1 0  -0.625 -1 0  -1 -0.625 0  -1 0.125 0  -1 0.375 0  -1 0.625 0  1 0.375 0  1 0.625 0  0.6325660748712082 0.3335187599557389 0  -0.06420945895056573 0.7549874027425891 0  -0.8769015540914771 0.2478802253893416 0  0.871875 0.871875 0  -0.6868091492840067 0.3270978624973681 0  -0.5363597469565949 0.412994850055505 0  -0.6803734992638302 0.5574295000651103 0  -0.7076253581162534 -0.8803439094224437 0  -0.8778089002295137 -0.5106896447504627 0  -0.3860184984222981 0.530566778071246 0  0.6109900617121508 0.1128453077697081 0  0.3896945134930274 -0.1915382873255086 0  0.7605656944697778 -0.06822134873122943 0  0.3576151269893478 0.5948388411612135 0  -0.5689902680792265 -0.5143596830118065 0  0.6262446286847614 -0.5735657901943212 0  0.2030558252325225 -0.5625263842513452 0  0.6123273142928579 0.7407533260723429 0  0.4016460890123554 -0.3042863223111857 0  -0.59039693199147 0.7578418819188018 0  0.7276932493917544 -0.3705808024528924 0  0.5222536818742854 -0.4713886230400014 0  -0.5101986527137737 0.8848365765607674 0  0.510560172809238 0.5356013299918891 0  -0.3603569195756083 0.75823710606415 0  0.1967279277813232 0.728226870058472 0  -0.6086880986371127 0.1545624071548516 0  -0.38105366729386 0.1511189987807864 0  -0.2944659463671584 -0.7359061804869591 0  0.5060729154966499 -0.3475227845833823 0  -0.09281616240412746 -0.06197858250969457 0  0.7649739583333334 0.6673177083333334 0  0.7628906249999999 0.890234375 0  -0.2666864184909611 0.2585504071132311 0  0.3635064892129658 0.3878003602709461 0  -0.2339409722222222 0.8901937905844155 0  -0.1718792125974916 -0.8957733325456778 0  0.1001768566329531 0.4023510017391879 0  0.3120260172693757 -0.4540546875576884 0  0.7804062804433681 0.1896628610854537 0  0.4087715451998049 0.187961780041608 0  -0.1584963477271457 0.5451611892421655 0  -0.8926817849258324 0.463022006336401 0  0.2338091473445219 -0.07576267331277289 0  0.08171112182813692 -0.2349087687359925 0  0.04635385178956847 -0.1044635073718474 0  -0.4377391632114205 -0.6448874471423088 0  -0.1907678351227189 0.6480215912813945 0  0.300605946475244 0.4741444604171038 0  -0.2145033720757486 -0.06751709909419711 0  0.6069191921170397 -0.005492331448357812 0  0.0214718770761248 0.6032397936031719 0  0.5476675683364878 0.8992752415326501 0  0.4387475014316537 0.9093708953002239 0  -0.4932997685306436 -0.4381009159993523 0  0.2515197695339056 -0.1791673369138964 0  -0.7291666666666667 -0.6088789682539681 0  -0.9166666666666667 -0.6875 0  0.620579540363709 -0.2122431523583302 0  -0.484950136419973 0.6719440339397442 0  0.2857044415400258 0.0137589173127316 0  -0.8945708364098356 -0.288306105327986 0  0.4043102720140535 0.7842914560451557 0  0.04123256238752064 -0.9026968245801402 0  0.2003676884403109 -0.9091888601740487 0  0.1068775558538842 -0.7373377130403223 0  -0.4804566783514427 -0.1763307203045643 0  0.108286342087769 -0.3993789328997278 0  -0.191883080105361 -0.3640821726430649 0  -0.07025064492006244 0.2984876656890053 0  -0.7039324641409584 0.788312126296613 0  -0.7311286585775438 0.8932502354831682 0  0.5171409396884947 0.1503852691889257 0  0.4229392823658633 -0.003216522184234835 0  -0.5621736087218259 -0.919558629836806 0  -0.626474064879544 -0.7266572613636506 0  0.2446828746617422 0.2867616783302419 0  0.1759429608742923 0.4776611759306416 0  -0.3468240303741654 -0.5260416435617549 0  -0.7465808808425306 0.4069574477998361 0  -0.7819962170660292 0.2802441065650652 0  -0.3742623214119594 -0.8547800509641984 0  0.1014498009713561 0.8506721983266377 0  0.4285217620918213 -0.5230190595570253 0  0.4091738370487775 -0.6256346204225141 0  0.78125 0.46875 0  0.90625 0.53125 0  -0.4791801348852565 0.2553992655702126 0  0.7843318610782772 -0.7086046956885941 0  0.8909728264971901 -0.7355183796514634 0  0.7041908166528879 -0.7830649143180282 0  0.7311821352
[...]
<PointData  Vectors="f_22"> 
<DataArray  type="Float64"  Name="f_22"  NumberOfComponents="3" format="ascii">-2.7590979487613358e-03 -2.8092410698431223e-03 0.0000000000000000e+00  -2.7590979487613358e-03 -2.8092410698431223e-03 0.0000000000000000e+00  -2.7590979487613358e-03 -2.8092410698431223e-03 0.0000000000000000e+00  -2.7590979487613358e-03 -2.8092410698431223e-03 0.0000000000000000e+00  -2.7581626712213981e-03 -2.9950813654960455e-03 0.0000000000000000e+00  -2.9612800904255687e-03 -2.8080705997780243e-03 0.0000000000000000e+00  -2.7581626712213981e-03 -2.9950813654960455e-03 0.0000000000000000e+00  -2.9612800904255687e-03 -2.8080705997780243e-03 0.0000000000000000e+00  -2.9621516030645802e-03 -2.9962608030598033e-03 0.0000000000000000e+00  -8.6026065402912454e-04 -2.8085935258371996e-03 0.0000000000000000e+00  -2.7586150998374259e-03 -9.0245208327549391e-04 0.0000000000000000e+00  -2.7586150998374259e-03 -9.0245208327549391e-04 0.0000000000000000e+00  -4.8601392467410593e-03 -2.8085560281591662e-03 0.0000000000000000e+00  -8.6026065402912454e-04 -2.8085935258371996e-03 0.0000000000000000e+00  -2.7585438911621276e-03 -4.9019828146694864e-03 0.0000000000000000e+00  -4.8601392467410593e-03 -2.8085560281591662e-03 0.0000000000000000e+00  -2.7585438911621276e-03 -4.9019828146694864e-03 0.0000000000000000e+00  -9.5422695421719069e-04 -4.8576598206817962e-03 0.0000000000000000e+00  -4.8177465961940901e-03 -9.9441534738138517e-04 0.0000000000000000e+00  -8.6069732760293838e-04 -1.5545519348761369e-03 0.0000000000000000e+00  -4.3465249772277103e-03 -4.9022689452618111e-03 0.0000000000000000e+00  -2.5266314529049658e-03 -9.0854148327484800e-04 0.0000000000000000e+00  -4.8574099662485534e-03 -3.4496958004934875e-03 0.0000000000000000e+00  -9.7425681392459597e-04 -1.0194069908978404e-03 0.0000000000000000e+00  -4.6695408236033875e-03 -4.7143877084387838e-03 0.0000000000000000e+00  -1.5173547851892765e-03 -4.3038858569891501e-03 0.0000000000000000e+00  -4.1683533787137701e-03 -1.2639353840971821e-03 0.0000000000000000e+00  -4.2565521061499407e-03 -1.5538047562448911e-03 0.0000000000000000e+00  -9.9488453045947661e-04 -3.6403707555951025e-03 0.0000000000000000e+00  -1.1079519885385262e-03 -4.5507241894751404e-03 0.0000000000000000e+00  -4.5045377963766620e-03 -1.1544558585077035e-03 0.0000000000000000e+00  -2.5266474689742712e-03 -4.7193810171124485e-03 0.0000000000000000e+00  -1.2844706894323450e-03 -1.3267507039374864e-03 0.0000000000000000e+00  -4.2945723214259787e-03 -4.6224608178587982e-03 0.0000000000000000e+00  -1.2162526024697012e-03 -3.1244929982508001e-03 0.0000000000000000e+00  -3.8454492406536536e-03 -1.4681577333752007e-03 0.0000000000000000e+00  -1.2823516669896770e-03 -4.8073508032557685e-03 0.0000000000000000e+00  -1.8957843553255606e-03 -1.6857880921239544e-03 0.0000000000000000e+00  -4.0612099698730444e-03 -4.2413299869213002e-03 0.0000000000000000e+00  -4.7469994297594156e-03 -4.2502870479517764e-03 0.0000000000000000e+00  -1.4180400823538284e-03 -2.1036622286970132e-03 0.0000000000000000e+00  -3.2286055676442422e-03 -4.4291510362419661e-03 0.0000000000000000e+00  -2.7589081016730064e-03 -1.4225241702981921e-03 0.0000000000000000e+00  -1.3746283745498967e-03 -2.8090345129590964e-03 0.0000000000000000e+00  -4.2028156028470470e-03 -2.8089782740682392e-03 0.0000000000000000e+00  -2.7589182267715551e-03 -4.2504308358199752e-03 0.0000000000000000e+00  -2.6715132347089865e-03 -1.3965270120219941e-03 0.0000000000000000e+00  -1.1715749264404134e-03 -9.2936513905474204e-04 0.0000000000000000e+00  -4.8629058793684598e-03 -4.8435373210687378e-03 0.0000000000000000e+00  -2.7582702707304643e-03 -4.3820034434575075e-03 0.0000000000000000e+00  -2.7582756149240259e-03 -1.5538912897625861e-03 0.0000000000000000e+00  -2.7589081016730064e-03 -1.4225241702981921e-03 0.0000000000000000e+00  -2.7589182267715551e-03 -4.2504308358199752e-03 0.0000000000000000e+00  -1.5174707546613314e-03 -2.8082447265032878e-03 0.0000000000000000e+00  -4.3458278586967821e-03 -2.8082091584625307e-03 0.0000000000000000e+00  -1.5174707546613314e-03 -2.8082447265032878e-03 0.0000000000000000e+00  -2.7582756149240259e-03 -1.5538912897625861e-03 0.0000000000000000e+00  -1.3746283745498967e-03 -2.8090345129590964e-03 0.0000000000000000e+00  -4.2028156028470470e-03 -2.8089782740682392e-03 0.0000000000000000e+00  -2.7582702707304643e-03 -4.3820034434575075e-03 0.0000000000000000e+00  -4.3458278586967821e-03 -2.8082091584625307e-03 0.0000000000000000e+00  -1.4162656309295643e-03 -1.0203371201665059e-03 0.0000000000000000e+00  -4.1653710046435383e-03 -3.3990310216009617e-03 0.0000000000000000e+00  -4.7646821759367106e-03 -2.0361775842478347e-03 0.0000000000000000e+00  -4.8440206059495337e-03 -1.0847958552051503e-03 0.0000000000000000e+00  -3.8827527436861536e-03 -9.0477474482572790e-04 0.0000000000000000e+00  -4.0797726748505320e-03 -9.1707386164234495e-04 0.0000000000000000e+00  -8.9536723872804059e-04 -4.6716030136843755e-03 0.0000000000000000e+00  -1.6829842053513605e-03 -4.8940261541955861e-03 0.0000000000000000e+00  -4.2285296849741529e-03 -2.9819201499189300e-03 0.0000000000000000e+00  -2.0286851325063441e-03 -3.8940994337638675e-03 0.0000000000000000e+00  -9.1293668720748237e-04 -4.1613840384605470e-03 0.0000000000000000e+00  -4.6620640312607271e-03 -2.4647075894176462e-03 0.0000000000000000e+00  -4.7226207884470258e-03 -1.8388502095822356e-03 0.0000000000000000e+00  -9.7410175164965821e-04 -1.8218021078815585e-03 0.0000000000000000e+00  -1.7193342231139066e-03 -9.6272032626406830e-04 0.0000000000000000e+00  -8.6175281950747579e-04 -9.4644675067477862e-04 0.0000000000000000e+00  -4.8022772602041340e-03 -3.9356699847178716e-03 0.0000000000000000e+00  -4.0508794664945108e-03 -4.0989534946481729e-03 0.0000000000000000e+00  -3.9816038795298424e-03 -4.8987332245576222e-03 0.0000000000000000e+00  -1.7979853835417476e-03 -3.7533913685690941e-03 0.0000000000000000e+00  -1.6954442576412798e-03 -1.7444016878098681e-03 0.0000000000000000e+00  -9.0035785971125169e-04 -2.5089157619505283e-03 0.0000000000000000e+00  -3.2715098936669114e-03 -4.8987871635337793e-03 0.0000000000000000e+00  -1.4008654481459872e-03 -4.5462754217162893e-03 0.0000000000000000e+00  -9.1061319290233376e-04 -4.8965140063449951e-03 0.0000000000000000e+00  -1.9085666473139327e-03 -4.7139058585493211e-03 0.0000000000000000e+00  -1.6818128215525055e-03 -3.9174712755440837e-03 0.0000000000000000e+00  -4.7823948587930442e-03 -9.0008368971895045e-04 0.0000000000000000e+00  -4.6689214521744259e-03 -1.9579460636275766e-03 0.0000000000000000e+00  -3.8699642915811564e-03 -1.7266912359361274e-03 0.0000000000000000e+00  -9.7359833565482696e-04 -3.6773939619147594e-03 0.0000000000000000e+00  -4.8266075646093386e-03 -1.4688424519654125e-03 0.0000000000000000e+00  -9.0911057324015606e-04 -3.8711728850368229e-03 0.0000000000000000e+00  -4.8504733474761599e-03 -4.8098942840578219e-03 0.0000000000000000e+00  -2.1881555590869219e-03 -3.6155144271128102e-03 0.0000000000000000e+00  -3.5662862975172878e-03 -2.2227502353093995e-03 0.0000000000000000e+00  -3.7188609547506336e-03 -2.0174489917200054e-03 0.0000000000000000e+00  -3.7190239792369486e-03 -3.6120010489463978e-03 0.0000000000000000e+00  -3.5542873146678648e-03 -1.0189560926322689e-03 0.0000000000000000e+00  -4.7729702580347711e-03 -4.3129992292153625e-03 0.0000000000000000e+00  -4.7973433180994590e-03 -4.3629052261672510e-03 0.0000000000000000e+00  -3.0889251334414902e-03 -4.0172722072878801e-03 0.0000000000000000e+00  -8.8019150891372985e-04 -4.6543615226691520e-03 0.0000000000000000e+00  -8.6986128287416711e-04 -1.3374280812625083e-03 0.0000000000000000e+00  -1.0511654323254844e-03 -2.8083817632232294e-03 0.0000000000000000e+00  -1.7008646564001916e-03 -9.4361560574577274e-04 0.0000000000000000e+00  -4.1939367570948231e-03 -4.5642529435106598e-03 0.0000000000000000e+00  -2.7583962176681784e-03 -4.7853457914678313e-03 0.0000000000000000e+00  -4.5322667488031775e-03 -9.3137409391653677e-04 0.0000000000000000e+00  -2.1882173934199998e-03 -2.8080652766861625e-03 0.0000000000000000e+00  -1.8332826536986756e-03 -1.8854798704319106e-03 0.0000000000000000e+00  -2.8106030767109801e-03 -1.2845121713789614e-03 0.0000000000000000e+00  -1.1785695247989918e-03 -1.3805941353963302e-03 0.0000000000000000e+00  -9.4414732296380002e-04 -2.3281438515281713e-03 0.0000000000000000e+00  -1.9566965104414386e-03 -2.6794787630427951e-03 0.0000000000000000e+00  -2.2698554886912228e-03 -4.6534868920481316e-03 0.0000000000000000e+00  -4.6274337586401206e-03 -4.9003245846723931e-03 0.0000000000000000e+00  -3.5385767061917399e-03 -4.7301552970277477e-03 0.0000000000000000e+00  -3.2047326661973591e-03 -9.8204039504629385e-04 0.0000000000000000e+00  -3.5663259367281043e-03 -1.1850602829490153e-03 0.0000000000000000e+00  -2.7586943212214903e-03 -4.7141480198763502e-03 0.0000000000000000e+00  -3.1310617262295471e-03 -2.0200254393034443e-03 0.0000000000000000e+00  -8.6995687870188465e-04 -3.2857320812545144e-03 0.0000000000000000e+00  -3.5320691138837398e-03 -2.8090934714093073e-03 0.0000000000000000e+00  -4.6000677885210091e-03 -1.0676464399171197e-03 0.0000000000000000e+00  -4.3997641528111513e-03 -1.0834015284936905e-03 0.0000000000000000e+00  -1.0015358121542928e-03 -9.7600440451115422e-04 0.0000000000000000e+00  -2.7581996068505549e-03 -3.7533191725038773e-03 0.0000000000000000e+00  -3.7025169439638510e-03 -4.1582501288676263e-03 0.0000000000000000e+00  -1.8390451605898731e-03 -4.5106851752334280e-03 0.0000000000000000e+00  -9.8259397296166992e-04 -1.2337337030978301e-03 0.0000000000000000e+00  -4.4618039190954450e-03 -4.7167794662088987e-03 0.0000000000000000e+00  -1.8660247360992855e-03 -4.9026346847028911e-03 0.0000000000000000e+00  -1.1922030770608913e-03 -4.3321073521191038e-03 0.0000000000000000e+00  -4.7488480409166737e-03 -2.9659472083186440e-03 0.0000000000000000e+00  -1.0100112480109563e-03 -1.9109427781485210e-03 0.0000000000000000e+00  -4.5257856876465300e-03 -3.7387450496734341e-03 0.0000000000000000e+00  -1.7485289789444952e-03 -1.0856833538722560e-03 0.0000000000000000e+00  -1.8423707055740905e-03 -1.4422972009162178e-03 0.0000000000000000e+00  -1.3620729766081119e-03 -3.0254720590810894e-03 0.0000000000000000e+00  -2.7581753525709888e-03 -2.2227926750679763e-03 0.0000000000000000e+00  -1.9859239382183278e-03 -2.6187376304371412e-03 0.0000000000000000e+00  -4.8416446283583619e-03 -3.5811102785979461e-03 0.0000000000000000e+00  -4.4326482860976750e-03 -3.7011033494276499e-03 0.0000000000000000e+00  -2.7590067123455225e-03 -3.5814911830010197e-03 0.0000000000000000e+00  -4.2850904735728919e-03 -2.0780071686613429e-03 0.0000000000000000e+00  -3.5829757395226250e-03 -4.6945704230010659e-03 0.0000000000000000e+00  -4.8598134315576249e-03 -1.5799879759973044e-03 0.0000000000000000e+00  -8.7112180894715588e-04 -4.2963602691547314e-03 0.0000000000000000e+00  -1.2631371857995317e-03 -3.9370265660386870e-03 0.0000000000000000e+00  -1.2338805853790663e-03 -1.3376243142342744e-03 0.0000000000000000e+00  -2.7584315228639110e-03 -1.0902518362232306e-03 0.0000000000000000e+00  -3.6693964351983853e-03 -4.6470722511895556e-03 0.0000000000000000e+00  -1.3732925497557491e-03 -2.1970431664830067e-03 0.0000000000000000e+00  -3.6474958175419223e-03 -3.4579921167862053e-03 0.0000000000000000e+00  -1.2397827603164403e-03 -4.7401309858680282e-03 0.0000000000000000e+00  -1.3335811796477879e-03 -4.8555593213362907e-03 0.0000000000000000e+00  -2.7583962176681784e-03 -4.7853457914678313e-03 0.0000000000000000e+00  -2.4356150796481717e-03 -4.9039947782409006e-03 0.0000000000000000e+00  -4.4815619141376512e-03 -3.5582623737013077e-03 0.0000000000000000e+00  -4.8608229424979311e-03 -2.6244786652959260e-03 0.0000000000000000e+00  -4.6429074394741610e-03 -3.7599483520671384e-03 0.0000000000000000e+00  -1.2714704830496489e-03 -3.6155459058399915e-03 0.0000000000000000e+00  -4.7285845750931772e-03 -1.3743562600973148e-03 0.0000000000000000e+00  -2.7590553275725319e-03 -2.0511147818661202e-03 0.0000000000000000e+00  -3.5320691138837398e-03 -2.8090934714093073e-03 0.0000000000000000e+00  -2.0015108939137349e-03 -2.8091923808213062e-03 0.0000000000000000e+00  -2.7590067123455225e-03 -3.5814911830010197e-03 0.0000000000000000e+00  -2.9224328484888664e-03 -2.0157734850361785e-03 0.0000000000000000e+00  -3.4830783968708731e-03 -1.4003190449410185e-03 0.0000000000000000e+00  -1.9076093967859392e-03 -1.2830957329156409e-03 0.0000000000000000e+00  -1.2221796414372279e-03 -9.0189714707172494e-04 0.0000000000000000e+00  -1.9827927333255137e-03 -9.1814664437969793e-04 0.0000000000000000e+00  -4.7529292360227468e-03 -4.9032318716461095e-03 0.0000000000000000e+00  -2.7590553275725319e-03 -2.0511147818661202e-03 0.0000000000000000e+00  -2.0015108939137349e-03 -2.8091923808213062e-03 0.0000000000000000e+00  -4.8531836337485645e-03 -4.4936297917231582e-03 0.0000000000000000e+00  -9.3180138763879628e-04 -1.0928878164825745e-03 0.0000000000000000e+00  -1.0045015663535314e-03 -1.8185788538797151e-03 0.0000000000000000e+00  -2.4038225885932782e-03 -1.0042343348240852e-03 0.0000000000000000e+00  -3.2396552222835624e-03 -9.8064501771034734e-04 0.0000000000000000e+00  -3.7365688024334730e-03 -2.4665038870671624e-03 0.0000000000000000e+00  -3.5535611925194698e-03 -3.0192306421815674e-03 0.0000000000000000e+00  -2.9612118261519520e-03 -3.5811908602475639e-03 0.0000000000000000e+00  -2.7584315228639110e-03 -1.0902518362232306e-03 0.0000000000000000e+00  -2.7587281430145149e-03 -1.0191456369642324e-03 0.0000000000000000e+00  -3.7188771558512453e-03 -2.8081275980446773e-03 0.0000000000000000e+00  -2.7581753525709888e-03 -2.2227926750679763e-03 0.0000000000000000e+00  -1.0511654323254844e-03 -2.8083817632232294e-03 0.0000000000000000e+00  -2.1882173934199998e-03 -2.8080652766861625e-03 0.0000000000000000e+00  -9.7386355436413050e-04 -2.8087748488516370e-03 0.0000000000000000e+00  -2.7586943212214903e-03 -4.7141480198763502e-03 0.0000000000000000e+00  -2.7581996068505549e-03 -3.7533191725038773e-03 0.0000000000000000e+00  -2.7587281430145149e-03 -1.0191456369642324e-03 0.0000000000000000e+00  -9.7386355436413050e-04 -2.8087748488516370e-03 0.0000000000000000e+00  -3.7188771558512453e-03 -2.8081275980446773e-03 0.0000000000000000e+00  -4.7465997101861952e-03 -2.8083857829981343e-03 0.0000000000000000e+00  -4.6691922562904281e-03 -2.8088126533159456e-03 0.0000000000000000e+00  -4.7465997101861952e-03 -2.8083857829981343e-03 0.0000000000000000e+00  -4.6691922562904281e-03 -2.8088126533159456e-03 0.0000000000000000e+00  -4.6438721709844855e-03 -4.6934268375826687e-03 0.0000000000000000e+00  -4.1786278880935760e-03 -2.5926975548252866e-03 0.0000000000000000e+00  -4.3367974789605933e-03 -2.0607880068282914e-03 0.0000000000000000e+00  -3.5506531949964734e-03 -3.5999371347598592e-03 0.0000000000000000e+00  -4.6242951320621369e-03 -1.1847394848581896e-03 0.0000000000000000e+00  -4.8127498318799675e-03 -9.0436429444322312e-04 0.0000000000000000e+00  -4.8089639977921417e-03 -1.1644725961585051e-03 0.0000000000000000e+00  -2.0319756664656206e-03 -1.2567797385129656e-03 0.0000000000000000e+00  -8.5822183154467496e-04 -2.0667538736481258e-03 0.0000000000000000e+00  -4.8405612512219922e-03 -1.0616348592170598e-03 0.0000000000000000e+00  -3.6497905294413944e-03 -4.7496043703663185e-03 0.0000000000000000e+00  -1.8116598316799061e-03 -4.8147921243860865e-03 0.0000000000000000e+00  -2.5336358747282974e-03 -4.1996584283548605e-03 0.0000000000000000e+00  -4.7425889906716192e-03 -4.7459785469223196e-03 0.0000000000000000e+00  -8.5831035724683188e-04 -9.2960031135839148e-04 0.0000000000000000e+00  -8.8971123771537522e-04 -4.7101443020251257e-03 0.0000000000000000e+00  -8.7850057105053384e-04 -4.1679358232346595e-03 0.0000000000000000e+00  -4.2455821187909930e-03 -4.7468217297307125e-03 0.0000000000000000e+00  -1.2847746262064374e-03 -4.8354637533446886e-03 0.0000000000000000e+00  -4.1650718629360614e-03 -9.5618256374602629e-04 0.0000000000000000e+00  -1.0629510217751935e-03 -4.3498084848925603e-03 0.0000000000000000e+00  -8.7691443853438514e-04 -4.8900516153526719e-03 0.0000000000000000e+00  -3.4727391935745360e-03 -9.0035223776941526e-04 0.0000000000000000e+00  -4.8368189717203957e-03 -4.8981812678886910e-03 0.0000000000000000e+00  -4.1629781442569114e-03 -1.1311133244839751e-03 0.0000000000000000e+00  -4.3009486830302528e-03 -4.1370536244637098e-03 0.0000000000000000e+00  -3.8830551331746769e-03 -9.8619296771173702e-04 0.0000000000000000e+00  -3.8646799906784466e-03 -1.0745790632883674e-03 0.0000000000000000e+00  -1.3165046407993032e-03 -1.3613182973098957e-03 0.0000000000000000e+00  -1.1317053662284761e-03 -4.8993732924930231e-03 0.0000000000000000e+00  -2.5733140230278975e-03 -2.4174271479558023e-03 0.0000000000000000e+00  -4.5396341655538665e-03 -4.1794167352626676e-03 0.0000000000000000e+00  -3.4410553393635890e-03 -4.1895089200395877e-03 0.0000000000000000e+00  -4.3815654453974884e-03 -1.4786190483813961e-03 0.0000000000000000e+00  -4.7727532947400390e-03 -4.7602816662586566e-03 0.0000000000000000e+00  -3.4402984658275992e-03 -1.6301507185416252e-03 0.0000000000000000e+00  -2.1205989534672127e-03 -1.9538831523390190e-03 0.0000000000000000e+00  -4.7976994693886745e-03 -3.6105111423110469e-03 0.0000000000000000e+00  -8.9527013236140990e-04 -4.6150962160534147e-03 0.0000000000000000e+00  -4.0665506912921905e-03 -4.1025235349976550e-03 0.0000000000000000e+00  -4.0585582232022209e-03 -4.8472076157411838e-03 0.0000000000000000e+00  -4.8252790248413278e-03 -2.0290371205861826e-03 0.0000000000000000e+00  -4.8582006569794214e-03 -2.1521102707024046e-03 0.0000000000000000e+00  -2.4876551758586840e-03 -4.3123164722774221e-03 0.0000000000000000e+00  -1.5899997691089273e-03 -3.5007923254040986e-03 0.0000000000000000e+00  -2.3121440589163123e-03 -3.2854717041133422e-03 0.0000000000000000e+00  -1.0197854536651196e-03 -9.5911000219408215e-04 0.0000000000000000e+00  -4.6016708866220305e-03 -1.8510097256036972e-03 0.0000000000000000e+00  -4.8622245250518900e-03 -4.5775103680304281e-03 0.0000000000000000e+00  -2.5388768524168218e-03 -1.7278959950072130e-03 0.0000000000000000e+00  -2.9270879441266927e-03 -4.7591354803169714e-03 0.0000000000000000e+00  -4.7233181158708943e-03 -3.1302017316648533e-03 0.0000000000000000e+00  -3.3861946661633930e-03 -4.8658506421472786e-03 0.0000000000000000e+00  -3.3245012513379540e-03 -4.8829760076773681e-03 0.0000000000000000e+00  -9.1815313126415786e-04 -9.0531860272831681e-04 0.0000000000000000e+00  -1.8789507017334564e-03 -4.3889773904817004e-03 0.0000000000000000e+00  -9.4262326293809357e-04 -1.3375847979580141e-03 0.0000000000000000e+00  -1.1413341889023178e-03 -2.2947506052996111e-03 0.0000000000000000e+00  -1.7026600088609015e-03 -4.7250954010355393e-03 0.0000000000000000e+00  -4.5225138796377729e-03 -9.0872466977531775e-04 0.0000000000000000e+00  -3.0484090887734653e-03 -4.5243415880852518e-03 0.0000000000000000e+00  -1.3489778896447488e-03 -2.1632639852012313e-03 0.0000000000000000e+00  -4.0352514652171809e-03 -4.8401172119161579e-03 0.0000000000000000e+00  -2.1610032468823231e-03 -3.2526016098618706e-03 0.0000000000000000e+00  -2.1994108349497493e-03 -4.1546222693830013e-03 0.0000000000000000e+00  -1.3215845743203638e-03 -3.6489700199543113e-03 0.0000000000000000e+00  -1.8948416720642033e-03 -9.1222507267661854e-04 0.0000000000000000e+00  -9.9089231343498429e-04 -3.6576921594362044e-03 0.0000000000000000e+00  -1.0823358614199651e-03 -1.8458749972566997e-03 0.0000000000000000e+00  -4.5328009923428381e-03 -2.5560076372662618e-03 0.0000000000000000e+00  -4.0141868015131487e-03 -1.2431890267976678e-03 0.0000000000000000e+00  -3.4224825898002214e-03 -1.3450763299104550e-03 0.0000000000000000e+00  -3.8609851179421638e-03 -4.8941935079007395e-03 0.0000000000000000e+00  -2.9416373253449784e-03 -4.8662024775617705e-03 0.0000000000000000e+00  -2.2620833499263139e-03 -9.2255888122014218e-04 0.0000000000000000e+00  -1.2804952407549930e