<?xml version="1.0"?>
<VTKFile type="UnstructuredGrid"  version="0.1"  >
<UnstructuredGrid>
<Piece  NumberOfPoints="1380" NumberOfCells="2630">
<Points>
<DataArray  type="Float64"  NumberOfComponents="3"  format="ascii">-1 -1 0  1 -1 0  1 1 0  -1 1 0  0 -1 0  1 0 0  0 1 0  -1 0 0  0 0 0  -1 -0.5 0  -0.5 -1 0  -0.5 1 0  -1 0.5 0  1 -0.5 0  0.5 -1 0  1 0.5 0  0.5 1 0  0.4166666666666666 -0.4166666666666667 0  -0.4166666666666667 0.4166666666666667 0  -0.25 -0.5 0  0.5 0.25 0  -0.4861111111111112 -0.06944444444444445 0  0.0732758620689655 0.507183908045977 0  -0.625 -0.625 0  0.625 0.625 0  0.7380952380952381 -0.25 0  -0.7099116161616161 0.2105429292929293 0  -0.25 0.7380952380952381 0  0.105392156862745 -0.6348039215686275 0  0.6770833333333334 -0.6770833333333333 0  -0.6770833333333334 0.6770833333333334 0  0.3472222222222222 -0.06944444444444446 0  -0.7264957264957265 -0.3044871794871795 0  0.3141940982507127 0.7297313660835709 0  0.02049587951122483 -0.3227479397556124 0  -0.2690972222222223 0.1475694444444444 0  0.3859500089908372 -0.7274430156831472 0  -0.2228477945123298 -0.1761765495248019 0  0.2182539682539683 0.1884920634920635 0  0.75 0.375 0  -0.145442219440968 -0.7602211097204841 0  0.7088913690476191 0.0427827380952381 0  -0.75 -1 0  -1 -0.75 0  1 0.75 0  0.75 1 0  -0.7439982703698937 -0.04614153195464455 0  -0.4609235096577606 -0.3356498099556895 0  0.4063134471431929 0.4895621842856023 0  0.25 -1 0  -0.25 -1 0  -0.75 1 0  0.75 -1 0  -1 -0.25 0  -1 0.25 0  1 -0.25 0  -0.25 1 0  1 -0.75 0  -1 0.75 0  0.25 1 0  1 0.25 0  -0.4041423272138783 -0.7597141090712928 0  0.06500839607911253 0.7578103030529481 0  -0.1572801182352047 0.3838997021864289 0  -0.6528005242053915 0.4409494757946086 0  -0.4930160984848485 0.1544744318181818 0  -0.4732142857142858 0.7752976190476191 0  0.6398809523809523 -0.4538690476190476 0  0.5166054117396399 -0.2161233620965164 0  -0.002273787244753427 0.2232363985975174 0  0.1500564496765022 -0.1524955293952667 0  0.2016720420046758 -0.4410343282803009 0  -0.08495178036419618 0.6274139771124571 0  -0.8367311471133162 0.3642591720794645 0  -0.8333333333333334 -0.625 0  -0.594323836800685 -0.8231079456002283 0  -0.4466957714776065 -0.5349126855671806 0  0.8125 0.5625 0  0.78125 0.78125 0  0.5091392650016769 0.7947130883338923 0  0.125 -0.8382681931833136 0  -0.8184523809523809 -0.8184523809523809 0  -0.07781530426104531 -0.5819319697006881 0  0.5085055196703295 0.04967610411902112 0  0.2918471072074933 -0.276017202318847 0  0.5120763537765269 -0.5898771553229597 0  0.625 -0.8585349462365591 0  0.8158532234335381 -0.8158532234335381 0  -0.5198088446315396 0.5739411553684605 0  -0.8585349462365591 0.625 0  -0.8150493805516597 0.8156205699829586 0  0.8585349462365591 -0.625 0  -0.2688268348649726 0.5439331383603209 0  0.8242100426758139 -0.4436043596336612 0  0.5833756314287952 0.4479378157143976 0  0.8690476190476191 -0.125 0  -0.125 0.8690476190476191 0  -0.8692745600729823 0.125 0  0.8696725120759167 0.125 0  -0.625 0.8711516477451908 0  0.2339522463269718 0.3879558377955778 0  0.2453709502295031 0.5655822922838026 0  0.1730610651637797 0.02021709580868947 0  0.3245402594056757 -0.5644672020485209 0  -0.7291666666666666 -0.4816595441595442 0  -1 -0.375 0  -0.5811140848639904 -0.2127276307675001 0  0.673332592838314 0.2158348143233718 0  0.375 1 0  -0.5714768890989919 0.2985103444040069 0  -1 -0.125 0  -0.8453692574786325 -0.1875 0  -0.3144549134065865 -0.02408675326008025 0  -0.2898414972096258 -0.3336092734780093 0  -0.1075052092206287 -0.4224330421314983 0  -0.05043970703604117 -0.1652278959397459 0  0.6459672950297897 -0.1113415301525317 0  0.4645210271029513 0.6398480556579343 0  0.3512863754411909 0.0937979496253573 0  -0.6063160985568274 0.03891469652249891 0  -0.3428819444444445 0.8690476190476191 0  0.625 1 0  -0.1602164796159982 0.02697860906625157 0  0.04648110064133829 -0.4808416424239687 0  1 0.875 0  -0.3836102479201657 0.6484936449177356 0  -0.3776011723096096 0.263078478984336 0  -0.6024978259969829 -0.3949628096211138 0  0.125 1 0  0.2010781308272777 0.8456221018461906 0  0.2822509696388829 -0.845902544691141 0  -0.3285533674953515 -0.6289773550938936 0  0.3461306793221754 0.278777492464833 0  0.4737475672408696 -0.8508448959534423 0  0.2384632828836344 -0.7029523187242811 0  -0.004777287059791593 0.3759269695907358 0  -0.8499735021850066 -0.3912320205328522 0  0.1222536293721587 0.2963971539625205 0  -0.3769456520999688 -0.203572526805711 0  -0.2749617205755651 -0.8464290792698902 0  0.004805888512766143 -0.747174355248311 0  -0.125 -1 0  -0.06001061822252458 -0.8724007765244854 0  0.875 0.4375 0  0.854421179608893 0.271342359217786 0  0.875 1 0  -0.1499861095763589 0.2358309656934888 0  0.3381943639137225 0.8663061796405532 0  -0.7853090110442228 0.4998412775277108 0  0.7398165998560814 -0.5535192694951373 0  0.1580042122341573 -0.3100246140259917 0  -0.7291666666666667 -0.7142857142857142 0  -0.375 -1 0  0.6483368386154684 0.8514905990110488 0  -0.1295370103291928 -0.2826118305021242 0  0.07458201853700455 0.1123894386563915 0  0.6146465857036327 -0.3161203659316075 0  0.5551898493894731 -0.740296118159085 0  0.375 -1 0  0.482702798370208 -0.084133350091034 0  0.87890625 0.68359375 0  -0.05917195534525846 0.4971092425697621 0  0.1260710309213975 0.6343750312956699 0  0.8690476190476191 -0.3077066815262848 0  -0.2912010232560567 0.3668168386732139 0  -0.875 1 0  -1 0.875 0  1 -0.875 0  0.875 -1 0  -0.8689564281364567 -0.006189266075306407 0  -0.7449425635110547 0.08458938160051771 0  -0.7150266761936593 -0.1739444581417552 0  -0.5260034831318311 -0.711099823962112 0  -0.4724626808827322 -0.871722230709409 0  0.4734436795977052 0.377714794132168 0  -0.875 -1 0  -1 -0.875 0  0.6927189078571988 0.5156567235715964 0  -0.3742497615796874 -0.4296005251260107 0  -0.1969436423297711 -0.6387157229772615 0  -0.6179496409766825 -0.08933356056510935 0  -0.424405057115988 0.04452428810878029 0  -0.08479048335844169 0.1279607007132633 0  0.003830300099055113 0.8712085230656206 0  0.8748778838820267 -1.379218479898026e-05 0  -0.375 1 0  -0.625 1 0  1 0.125 0  -0.125 1 0  1 -0.375 0  1 -0.125 0  1 -0.625 0  0.625 -1 0  0.125 -1 0  -0.625 -1 0  -1 -0.625 0  -1 0.125 0  -1 0.375 0  -1 0.625 0  1 0.375 0  1 0.625 0  0.6325660748712082 0.3335187599557389 0  -0.06420945895056573 0.7549874027425891 0  -0.8769015540914771 0.2478802253893416 0  0.871875 0.871875 0  -0.6868091492840067 0.3270978624973681 0  -0.5363597469565949 0.412994850055505 0  -0.6803734992638302 0.5574295000651103 0  -0.7076253581162534 -0.8803439094224437 0  -0.8778089002295137 -0.5106896447504627 0  -0.3860184984222981 0.530566778071246 0  0.6109900617121508 0.1128453077697081 0  0.3896945134930274 -0.1915382873255086 0  0.7605656944697778 -0.06822134873122943 0  0.3576151269893478 0.5948388411612135 0  -0.5689902680792265 -0.5143596830118065 0  0.6262446286847614 -0.5735657901943212 0  0.2030558252325225 -0.5625263842513452 0  0.6123273142928579 0.7407533260723429 0  0.4016460890123554 -0.3042863223111857 0  -0.59039693199147 0.7578418819188018 0  0.7276932493917544 -0.3705808024528924 0  0.5222536818742854 -0.4713886230400014 0  -0.5101986527137737 0.8848365765607674 0  0.510560172809238 0.5356013299918891 0  -0.3603569195756083 0.75823710606415 0  0.1967279277813232 0.728226870058472 0  -0.6086880986371127 0.1545624071548516 0  -0.38105366729386 0.1511189987807864 0  -0.2944659463671584 -0.7359061804869591 0  0.5060729154966499 -0.3475227845833823 0  -0.09281616240412746 -0.06197858250969457 0  0.7649739583333334 0.6673177083333334 0  0.7628906249999999 0.890234375 0  -0.2666864184909611 0.2585504071132311 0  0.3635064892129658 0.3878003602709461 0  -0.2339409722222222 0.8901937905844155 0  -0.1718792125974916 -0.8957733325456778 0  0.1001768566329531 0.4023510017391879 0  0.3120260172693757 -0.4540546875576884 0  0.7804062804433681 0.1896628610854537 0  0.4087715451998049 0.187961780041608 0  -0.1584963477271457 0.5451611892421655 0  -0.8926817849258324 0.463022006336401 0  0.2338091473445219 -0.07576267331277289 0  0.08171112182813692 -0.2349087687359925 0  0.04635385178956847 -0.1044635073718474 0  -0.4377391632114205 -0.6448874471423088 0  -0.1907678351227189 0.6480215912813945 0  0.300605946475244 0.4741444604171038 0  -0.2145033720757486 -0.06751709909419711 0  0.6069191921170397 -0.005492331448357812 0  0.0214718770761248 0.6032397936031719 0  0.5476675683364878 0.8992752415326501 0  0.4387475014316537 0.9093708953002239 0  -0.4932997685306436 -0.4381009159993523 0  0.2515197695339056 -0.1791673369138964 0  -0.7291666666666667 -0.6088789682539681 0  -0.9166666666666667 -0.6875 0  0.620579540363709 -0.2122431523583302 0  -0.484950136419973 0.6719440339397442 0  0.2857044415400258 0.0137589173127316 0  -0.8945708364098356 -0.288306105327986 0  0.4043102720140535 0.7842914560451557 0  0.04123256238752064 -0.9026968245801402 0  0.2003676884403109 -0.9091888601740487 0  0.1068775558538842 -0.7373377130403223 0  -0.4804566783514427 -0.1763307203045643 0  0.108286342087769 -0.3993789328997278 0  -0.191883080105361 -0.3640821726430649 0  -0.07025064492006244 0.2984876656890053 0  -0.7039324641409584 0.788312126296613 0  -0.7311286585775438 0.8932502354831682 0  0.5171409396884947 0.1503852691889257 0  0.4229392823658633 -0.003216522184234835 0  -0.5621736087218259 -0.919558629836806 0  -0.626474064879544 -0.7266572613636506 0  0.2446828746617422 0.2867616783302419 0  0.1759429608742923 0.4776611759306416 0  -0.3468240303741654 -0.5260416435617549 0  -0.7465808808425306 0.4069574477998361 0  -0.7819962170660292 0.2802441065650652 0  -0.3742623214119594 -0.8547800509641984 0  0.1014498009713561 0.8506721983266377 0  0.4285217620918213 -0.5230190595570253 0  0.4091738370487775 -0.6256346204225141 0  0.78125 0.46875 0  0.90625 0.53125 0  -0.4791801348852565 0.2553992655702126 0  0.7843318610782772 -0.7086046956885941 0  0.8909728264971901 -0.7355183796514634 0  0.7041908166528879 -0.7830649143180282 0  0.7311821352
[...]
<PointData  Vectors="f_22"> 
<DataArray  type="Float64"  Name="f_22"  NumberOfComponents="3" format="ascii">-2.8519815815871447e-03 -2.8944853210666611e-03 0.0000000000000000e+00  -2.8519815815871447e-03 -2.8944853210666611e-03 0.0000000000000000e+00  -2.8519815815871447e-03 -2.8944853210666611e-03 0.0000000000000000e+00  -2.8519815815871447e-03 -2.8944853210666611e-03 0.0000000000000000e+00  -2.8519764067682597e-03 -2.9099426874871380e-03 0.0000000000000000e+00  -2.8683718359047254e-03 -2.8944795645118181e-03 0.0000000000000000e+00  -2.8519764067682597e-03 -2.9099426874871380e-03 0.0000000000000000e+00  -2.8683718359047254e-03 -2.8944795645118181e-03 0.0000000000000000e+00  -2.8683738796036131e-03 -2.9099501395783113e-03 0.0000000000000000e+00  -2.7553331145098500e-03 -2.8944817942457746e-03 0.0000000000000000e+00  -2.8519801016248683e-03 -2.7973693615747728e-03 0.0000000000000000e+00  -2.8519801016248683e-03 -2.7973693615747728e-03 0.0000000000000000e+00  -2.9650216866976111e-03 -2.8944799471114389e-03 0.0000000000000000e+00  -2.7553331145098500e-03 -2.8944817942457746e-03 0.0000000000000000e+00  -2.8519769071155584e-03 -3.0070656532061144e-03 0.0000000000000000e+00  -2.9650216866976111e-03 -2.8944799471114389e-03 0.0000000000000000e+00  -2.8519769071155584e-03 -3.0070656532061144e-03 0.0000000000000000e+00  -2.7610245964638899e-03 -3.0054906190333801e-03 0.0000000000000000e+00  -2.9635655113573285e-03 -2.8029394675975683e-03 0.0000000000000000e+00  -2.7553369218266256e-03 -2.8335439748767171e-03 0.0000000000000000e+00  -2.9401087250018800e-03 -3.0070657864847542e-03 0.0000000000000000e+00  -2.8454878860448263e-03 -2.7978061740268467e-03 0.0000000000000000e+00  -2.9648079016845897e-03 -2.9336702376937581e-03 0.0000000000000000e+00  -2.7601822989478833e-03 -2.8023956660876525e-03 0.0000000000000000e+00  -2.9539035073994861e-03 -2.9961249076288685e-03 0.0000000000000000e+00  -2.7918339119899689e-03 -2.9738097152207663e-03 0.0000000000000000e+00  -2.9310439329815101e-03 -2.8146141080783826e-03 0.0000000000000000e+00  -2.9314518406814245e-03 -2.8335421378349566e-03 0.0000000000000000e+00  -2.7612265814208016e-03 -2.9436085788883824e-03 0.0000000000000000e+00  -2.7668169551226390e-03 -2.9871660119887501e-03 0.0000000000000000e+00  -2.9448790210877445e-03 -2.8090983235483156e-03 0.0000000000000000e+00  -2.8454896081389755e-03 -2.9987895360070564e-03 0.0000000000000000e+00  -2.7792196757666469e-03 -2.8177636726374566e-03 0.0000000000000000e+00  -2.9334635583400039e-03 -2.9939661418864226e-03 0.0000000000000000e+00  -2.7755038985926282e-03 -2.9166799449308590e-03 0.0000000000000000e+00  -2.9143924232969938e-03 -2.8288959710105078e-03 0.0000000000000000e+00  -2.7756056189078564e-03 -3.0031158149117238e-03 0.0000000000000000e+00  -2.8120405502624892e-03 -2.8405786708714932e-03 0.0000000000000000e+00  -2.9255000287647386e-03 -2.9745924531702603e-03 0.0000000000000000e+00  -2.9601788161144390e-03 -2.9708888161208134e-03 0.0000000000000000e+00  -2.7824830549745567e-03 -2.8628990447329122e-03 0.0000000000000000e+00  -2.8823467304147370e-03 -2.9805625441292052e-03 0.0000000000000000e+00  -2.8519794703064051e-03 -2.8226163006221856e-03 0.0000000000000000e+00  -2.7802503510035272e-03 -2.8944846227615595e-03 0.0000000000000000e+00  -2.9285147674405956e-03 -2.8944815580574344e-03 0.0000000000000000e+00  -2.8519803063335996e-03 -2.9708846992784884e-03 0.0000000000000000e+00  -2.8531403148744664e-03 -2.8213275066847816e-03 0.0000000000000000e+00  -2.7730477621354969e-03 -2.7991065356083268e-03 0.0000000000000000e+00  -2.9652352302085229e-03 -3.0048020396266097e-03 0.0000000000000000e+00  -2.8519767835422215e-03 -2.9818226520562435e-03 0.0000000000000000e+00  -2.8519766957639690e-03 -2.8335452322425787e-03 0.0000000000000000e+00  -2.8519794703064051e-03 -2.8226163006221856e-03 0.0000000000000000e+00  -2.8519803063335996e-03 -2.9708846992784884e-03 0.0000000000000000e+00  -2.7918338990451982e-03 -2.8944815472083411e-03 0.0000000000000000e+00  -2.9401065453340414e-03 -2.8944798352651935e-03 0.0000000000000000e+00  -2.7918338990451982e-03 -2.8944815472083411e-03 0.0000000000000000e+00  -2.8519766957639690e-03 -2.8335452322425787e-03 0.0000000000000000e+00  -2.7802503510035272e-03 -2.8944846227615595e-03 0.0000000000000000e+00  -2.9285147674405956e-03 -2.8944815580574344e-03 0.0000000000000000e+00  -2.8519767835422215e-03 -2.9818226520562435e-03 0.0000000000000000e+00  -2.9401065453340414e-03 -2.8944798352651935e-03 0.0000000000000000e+00  -2.7823728036478965e-03 -2.8043815224156003e-03 0.0000000000000000e+00  -2.9265291003513897e-03 -2.9310509863993582e-03 0.0000000000000000e+00  -2.9610466810375074e-03 -2.8592991943988482e-03 0.0000000000000000e+00  -2.9647308286430136e-03 -2.8056464175926755e-03 0.0000000000000000e+00  -2.9163340754660479e-03 -2.7975619278926404e-03 0.0000000000000000e+00  -2.9219487252651736e-03 -2.7983887250190758e-03 0.0000000000000000e+00  -2.7576128204433235e-03 -2.9938062755089320e-03 0.0000000000000000e+00  -2.8007134789235712e-03 -3.0065152508612992e-03 0.0000000000000000e+00  -2.9340892266542158e-03 -2.9092034351918964e-03 0.0000000000000000e+00  -2.8191234537489908e-03 -2.9567245394140052e-03 0.0000000000000000e+00  -2.7586352627241338e-03 -2.9705210505211075e-03 0.0000000000000000e+00  -2.9535327881314560e-03 -2.8820201556676263e-03 0.0000000000000000e+00  -2.9590199428887938e-03 -2.8440233430717934e-03 0.0000000000000000e+00  -2.7601810288909222e-03 -2.8431007593334901e-03 0.0000000000000000e+00  -2.7979068913957942e-03 -2.7996848745917950e-03 0.0000000000000000e+00  -2.7550705482486432e-03 -2.8001276218977637e-03 0.0000000000000000e+00  -2.9614093386135265e-03 -2.9540325555296974e-03 0.0000000000000000e+00  -2.9203510008569012e-03 -2.9627499882318043e-03 0.0000000000000000e+00  -2.9166509839008777e-03 -3.0068007703227661e-03 0.0000000000000000e+00  -2.8020061689607101e-03 -2.9494829195607429e-03 0.0000000000000000e+00  -2.7966729207749398e-03 -2.8391044419739738e-03 0.0000000000000000e+00  -2.7567025172434041e-03 -2.8843416008418584e-03 0.0000000000000000e+00  -2.8845727380829730e-03 -3.0068199516269677e-03 0.0000000000000000e+00  -2.7855381838667653e-03 -2.9901373095669436e-03 0.0000000000000000e+00  -2.7571995694826959e-03 -3.0066920222168686e-03 0.0000000000000000e+00  -2.8077029632399600e-03 -2.9961219287255132e-03 0.0000000000000000e+00  -2.7959913476415335e-03 -2.9530683260189719e-03 0.0000000000000000e+00  -2.9603115634954675e-03 -2.7970894463560944e-03 0.0000000000000000e+00  -2.9539020868072996e-03 -2.8501584305572754e-03 0.0000000000000000e+00  -2.9107039389446874e-03 -2.8382087990855725e-03 0.0000000000000000e+00  -2.7601790285602550e-03 -2.9403096408571069e-03 0.0000000000000000e+00  -2.9628906770255746e-03 -2.8289587639034066e-03 0.0000000000000000e+00  -2.7584170037798796e-03 -2.9506313570690518e-03 0.0000000000000000e+00  -2.9649587534527873e-03 -3.0014858799260829e-03 0.0000000000000000e+00  -2.8276225959207361e-03 -2.9370502370779975e-03 0.0000000000000000e+00  -2.8945828395399087e-03 -2.8692323594008652e-03 0.0000000000000000e+00  -2.9078680838327494e-03 -2.8532627446369195e-03 0.0000000000000000e+00  -2.9078690410714292e-03 -2.9368553376430645e-03 0.0000000000000000e+00  -2.8939297521717684e-03 -2.8023937232699949e-03 0.0000000000000000e+00  -2.9614207373304773e-03 -2.9782634870490054e-03 0.0000000000000000e+00  -2.9611264180771763e-03 -2.9808203561114258e-03 0.0000000000000000e+00  -2.8750154459593227e-03 -2.9630771246536270e-03 0.0000000000000000e+00  -2.7558254062792290e-03 -2.9955824374828972e-03 0.0000000000000000e+00  -2.7559822948512091e-03 -2.8182935162559294e-03 0.0000000000000000e+00  -2.7664493897696239e-03 -2.8944806830578486e-03 0.0000000000000000e+00  -2.8016442404083159e-03 -2.7988066140782735e-03 0.0000000000000000e+00  -2.9323287110006725e-03 -2.9878916285945968e-03 0.0000000000000000e+00  -2.8519770086903426e-03 -3.0020433046865757e-03 0.0000000000000000e+00  -2.9495545338844467e-03 -2.7982764811832839e-03 0.0000000000000000e+00  -2.8276247474656960e-03 -2.8944776303674539e-03 0.0000000000000000e+00  -2.8087412605632693e-03 -2.8464214686385468e-03 0.0000000000000000e+00  -2.8604279917882167e-03 -2.8189413588966170e-03 0.0000000000000000e+00  -2.7734300269560037e-03 -2.8241512392215237e-03 0.0000000000000000e+00  -2.7604105458783963e-03 -2.8747737720065205e-03 0.0000000000000000e+00  -2.8152870309289457e-03 -2.8933071977944452e-03 0.0000000000000000e+00  -2.8319430026303260e-03 -2.9928027748178337e-03 0.0000000000000000e+00  -2.9515763884812897e-03 -3.0072759018535569e-03 0.0000000000000000e+00  -2.8984727462337233e-03 -2.9993140145412197e-03 0.0000000000000000e+00  -2.8810990145180073e-03 -2.8006261313785197e-03 0.0000000000000000e+00  -2.8945840613609627e-03 -2.8135457821199762e-03 0.0000000000000000e+00  -2.8519764283233763e-03 -2.9961243414824575e-03 0.0000000000000000e+00  -2.8772218083070260e-03 -2.8584189368289930e-03 0.0000000000000000e+00  -2.7560166674513520e-03 -2.9251228682493284e-03 0.0000000000000000e+00  -2.8927238249711242e-03 -2.8944802743148049e-03 0.0000000000000000e+00  -2.9501232793829450e-03 -2.8070621347313007e-03 0.0000000000000000e+00  -2.9428445124263791e-03 -2.8079238778978941e-03 0.0000000000000000e+00  -2.7636492378796409e-03 -2.8003135629817255e-03 0.0000000000000000e+00  -2.8519769606259815e-03 -2.9494798722230152e-03 0.0000000000000000e+00  -2.9017990295609392e-03 -2.9703683650865358e-03 0.0000000000000000e+00  -2.8041271269007742e-03 -2.9883590096335352e-03 0.0000000000000000e+00  -2.7605955302460582e-03 -2.8161782256208735e-03 0.0000000000000000e+00  -2.9459553053479107e-03 -2.9986482165071417e-03 0.0000000000000000e+00  -2.8055141504633231e-03 -3.0073444091994763e-03 0.0000000000000000e+00  -2.7710505844338110e-03 -2.9792795582781395e-03 0.0000000000000000e+00  -2.9602713361091171e-03 -2.9083755250563542e-03 0.0000000000000000e+00  -2.7641419770722373e-03 -2.8477218123769991e-03 0.0000000000000000e+00  -2.9491891147380234e-03 -2.9486777433503112e-03 0.0000000000000000e+00  -2.8041840302748216e-03 -2.8080228430729598e-03 0.0000000000000000e+00  -2.8042746521199130e-03 -2.8275200698861577e-03 0.0000000000000000e+00  -2.7796417295960630e-03 -2.9115263264550772e-03 0.0000000000000000e+00  -2.8519756292332038e-03 -2.8692347963873181e-03 0.0000000000000000e+00  -2.8117159969269175e-03 -2.8901567817166897e-03 0.0000000000000000e+00  -2.9646067904259658e-03 -2.9351944602152374e-03 0.0000000000000000e+00  -2.9445063113108815e-03 -2.9415728703268713e-03 0.0000000000000000e+00  -2.8519788847705123e-03 -2.9351920714965271e-03 0.0000000000000000e+00  -2.9369887077774367e-03 -2.8615112817265672e-03 0.0000000000000000e+00  -2.8954429062679802e-03 -2.9975726401575962e-03 0.0000000000000000e+00  -2.9650227184326102e-03 -2.8307008365078311e-03 0.0000000000000000e+00  -2.7554388515241479e-03 -2.9733937359978160e-03 0.0000000000000000e+00  -2.7780667064744146e-03 -2.9589527977606474e-03 0.0000000000000000e+00  -2.7731016399504898e-03 -2.8182951160405671e-03 0.0000000000000000e+00  -2.8519783839993699e-03 -2.8083092470477917e-03 0.0000000000000000e+00  -2.9000116536439754e-03 -2.9924094539121545e-03 0.0000000000000000e+00  -2.7840210243838177e-03 -2.8678203824754195e-03 0.0000000000000000e+00  -2.9041249670313843e-03 -2.9340819782362093e-03 0.0000000000000000e+00  -2.7768202617204146e-03 -2.9976061864301798e-03 0.0000000000000000e+00  -2.7781984243930775e-03 -3.0041566018499362e-03 0.0000000000000000e+00  -2.8519770086903426e-03 -3.0020433046865757e-03 0.0000000000000000e+00  -2.8406954468352601e-03 -3.0073287483665116e-03 0.0000000000000000e+00  -2.9435884140955847e-03 -2.9339661399476183e-03 0.0000000000000000e+00  -2.9650882753989418e-03 -2.8904365678191460e-03 0.0000000000000000e+00  -2.9524543177856973e-03 -2.9498002778518446e-03 0.0000000000000000e+00  -2.7785420430210886e-03 -2.9370487999151032e-03 0.0000000000000000e+00  -2.9593049091083757e-03 -2.8238425089284931e-03 0.0000000000000000e+00  -2.8519814771043117e-03 -2.8549540649709369e-03 0.0000000000000000e+00  -2.8927238249711242e-03 -2.8944802743148049e-03 0.0000000000000000e+00  -2.8124862756124139e-03 -2.8944856521691056e-03 0.0000000000000000e+00  -2.8519788847705123e-03 -2.9351920714965271e-03 0.0000000000000000e+00  -2.8663320570882977e-03 -2.8531732363064020e-03 0.0000000000000000e+00  -2.8956211922344936e-03 -2.8215275324009197e-03 0.0000000000000000e+00  -2.8126943911988291e-03 -2.8155623025703509e-03 0.0000000000000000e+00  -2.7725134018435319e-03 -2.7970911287878968e-03 0.0000000000000000e+00  -2.8115263551400566e-03 -2.7984308166760135e-03 0.0000000000000000e+00  -2.9604532390135069e-03 -3.0073465560866079e-03 0.0000000000000000e+00  -2.8519814771043117e-03 -2.8549540649709369e-03 0.0000000000000000e+00  -2.8124862756124139e-03 -2.8944856521691056e-03 0.0000000000000000e+00  -2.9644931926007864e-03 -2.9840264623816797e-03 0.0000000000000000e+00  -2.7596879873572769e-03 -2.8084212871134911e-03 0.0000000000000000e+00  -2.7616744025825667e-03 -2.8477044748561782e-03 0.0000000000000000e+00  -2.8390130463487109e-03 -2.8016848626812104e-03 0.0000000000000000e+00  -2.8829117248981555e-03 -2.8021305650194010e-03 0.0000000000000000e+00  -2.9087471512136633e-03 -2.8820790144946920e-03 0.0000000000000000e+00  -2.8939039294582688e-03 -2.9112063690715046e-03 0.0000000000000000e+00  -2.8683658421667056e-03 -2.9352279022486620e-03 0.0000000000000000e+00  -2.8519783839993699e-03 -2.8083092470477917e-03 0.0000000000000000e+00  -2.8519777200366149e-03 -2.8023941146616150e-03 0.0000000000000000e+00  -2.9078667617631268e-03 -2.8944805791720459e-03 0.0000000000000000e+00  -2.8519756292332038e-03 -2.8692347963873181e-03 0.0000000000000000e+00  -2.7664493897696239e-03 -2.8944806830578486e-03 0.0000000000000000e+00  -2.8276247474656960e-03 -2.8944776303674539e-03 0.0000000000000000e+00  -2.7601801159319707e-03 -2.8944806951444477e-03 0.0000000000000000e+00  -2.8519764283233763e-03 -2.9961243414824575e-03 0.0000000000000000e+00  -2.8519769606259815e-03 -2.9494798722230152e-03 0.0000000000000000e+00  -2.8519777200366149e-03 -2.8023941146616150e-03 0.0000000000000000e+00  -2.7601801159319707e-03 -2.8944806951444477e-03 0.0000000000000000e+00  -2.9078667617631268e-03 -2.8944805791720459e-03 0.0000000000000000e+00  -2.9601774223520158e-03 -2.8944810171156327e-03 0.0000000000000000e+00  -2.9539035688932111e-03 -2.8944828738822165e-03 0.0000000000000000e+00  -2.9601774223520158e-03 -2.8944810171156327e-03 0.0000000000000000e+00  -2.9539035688932111e-03 -2.8944828738822165e-03 0.0000000000000000e+00  -2.9551030279310019e-03 -2.9949744796394324e-03 0.0000000000000000e+00  -2.9272500929195771e-03 -2.8887810370442904e-03 0.0000000000000000e+00  -2.9396517911644943e-03 -2.8555077128970059e-03 0.0000000000000000e+00  -2.8937059661469579e-03 -2.9361689843844727e-03 0.0000000000000000e+00  -2.9541658871433275e-03 -2.8106286598551847e-03 0.0000000000000000e+00  -2.9633376859520555e-03 -2.7971683437868280e-03 0.0000000000000000e+00  -2.9618448338264089e-03 -2.8096065890600070e-03 0.0000000000000000e+00  -2.8140644772703905e-03 -2.8142065388585187e-03 0.0000000000000000e+00  -2.7551189353457800e-03 -2.8557810588860531e-03 0.0000000000000000e+00  -2.9637459554945479e-03 -2.8067253598986043e-03 0.0000000000000000e+00  -2.9042623671782421e-03 -2.9981113817007703e-03 0.0000000000000000e+00  -2.8075826310305367e-03 -3.0034579079227714e-03 0.0000000000000000e+00  -2.8458830143326800e-03 -2.9681996912038311e-03 0.0000000000000000e+00  -2.9579949814754081e-03 -3.0000955274694751e-03 0.0000000000000000e+00  -2.7550744543948335e-03 -2.7981629364349477e-03 0.0000000000000000e+00  -2.7562420437466290e-03 -2.9959336291005474e-03 0.0000000000000000e+00  -2.7557479934198249e-03 -2.9708656415023292e-03 0.0000000000000000e+00  -2.9308076648226081e-03 -2.9979315582180795e-03 0.0000000000000000e+00  -2.7792594228901318e-03 -3.0044489138953594e-03 0.0000000000000000e+00  -2.9265203340275159e-03 -2.7994031439585250e-03 0.0000000000000000e+00  -2.7671178585544215e-03 -2.9762845068210032e-03 0.0000000000000000e+00  -2.7564898993072879e-03 -3.0062641851309356e-03 0.0000000000000000e+00  -2.8896151771501729e-03 -2.7971752858580766e-03 0.0000000000000000e+00  -2.9634520011550098e-03 -3.0067518596376490e-03 0.0000000000000000e+00  -2.9264172686086706e-03 -2.8105799008449886e-03 0.0000000000000000e+00  -2.9338169623966781e-03 -2.9692707209029775e-03 0.0000000000000000e+00  -2.9163558805501105e-03 -2.8008306048495622e-03 0.0000000000000000e+00  -2.9153935891310986e-03 -2.8074258174555959e-03 0.0000000000000000e+00  -2.7773022439360343e-03 -2.8231290348084211e-03 0.0000000000000000e+00  -2.7709087852013838e-03 -3.0068937747513443e-03 0.0000000000000000e+00  -2.8479351849691466e-03 -2.8794824237723883e-03 0.0000000000000000e+00  -2.9467535124455984e-03 -2.9670656438309929e-03 0.0000000000000000e+00  -2.8879017288389822e-03 -2.9676060264816478e-03 0.0000000000000000e+00  -2.9419126111657531e-03 -2.8294676873695150e-03 0.0000000000000000e+00  -2.9614071263269854e-03 -3.0007910434764664e-03 0.0000000000000000e+00  -2.8879075507718265e-03 -2.8376453079821114e-03 0.0000000000000000e+00  -2.8186959539909188e-03 -2.8549420312377022e-03 0.0000000000000000e+00  -2.9626021865343339e-03 -2.9420282523973068e-03 0.0000000000000000e+00  -2.7576008535834442e-03 -2.9936118450905858e-03 0.0000000000000000e+00  -2.9258011373721718e-03 -2.9629763329218801e-03 0.0000000000000000e+00  -2.9253671415184778e-03 -3.0049761599054651e-03 0.0000000000000000e+00  -2.9628032292146598e-03 -2.8589319072467650e-03 0.0000000000000000e+00  -2.9652639649505796e-03 -2.8602339379783207e-03 0.0000000000000000e+00  -2.8434266511046307e-03 -2.9782319898508818e-03 0.0000000000000000e+00  -2.7957026598969723e-03 -2.9363200734834945e-03 0.0000000000000000e+00  -2.8341470502242644e-03 -2.9250855358321707e-03 0.0000000000000000e+00  -2.7624094758490168e-03 -2.8008737001705575e-03 0.0000000000000000e+00  -2.9502059633687893e-03 -2.8494560886499149e-03 0.0000000000000000e+00  -2.9653416761741378e-03 -2.9916938120218761e-03 0.0000000000000000e+00  -2.8461210440124001e-03 -2.8428343661950181e-03 0.0000000000000000e+00  -2.8665620021851700e-03 -2.9986528641424608e-03 0.0000000000000000e+00  -2.9569380943467510e-03 -2.9169984383168026e-03 0.0000000000000000e+00  -2.8850092535344304e-03 -3.0047387362143654e-03 0.0000000000000000e+00  -2.8817559635580517e-03 -3.0066094949050986e-03 0.0000000000000000e+00  -2.7588970533872796e-03 -2.7975581763677294e-03 0.0000000000000000e+00  -2.8111621198580049e-03 -2.9821503891240856e-03 0.0000000000000000e+00  -2.7586622330484545e-03 -2.8182956367774773e-03 0.0000000000000000e+00  -2.7684531424284260e-03 -2.8676154387791779e-03 0.0000000000000000e+00  -2.8017713579276508e-03 -2.9967661327421403e-03 0.0000000000000000e+00  -2.9458713384946217e-03 -2.7978500956095374e-03 0.0000000000000000e+00  -2.8728991064451231e-03 -2.9890120901918866e-03 0.0000000000000000e+00  -2.7827331633646438e-03 -2.8608082343988756e-03 0.0000000000000000e+00  -2.9195265435714001e-03 -3.0046534087628755e-03 0.0000000000000000e+00  -2.8208044745024327e-03 -2.9234201482782468e-03 0.0000000000000000e+00  -2.8228028317924870e-03 -2.9701921184959079e-03 0.0000000000000000e+00  -2.7775897542639213e-03 -2.9440611416619244e-03 0.0000000000000000e+00  -2.8119982046287424e-03 -2.7980426068712379e-03 0.0000000000000000e+00  -2.7630760453298897e-03 -2.9444902458398360e-03 0.0000000000000000e+00  -2.7681442875313617e-03 -2.8491429922744321e-03 0.0000000000000000e+00  -2.9495531418111437e-03 -2.8868121283574522e-03 0.0000000000000000e+00  -2.9184197161087016e-03 -2.8135426106197731e-03 0.0000000000000000e+00  -2.8869373872929664e-03 -2.8186864567270910e-03 0.0000000000000000e+00  -2.9151889337708761e-03 -3.0064966703744955e-03 0.0000000000000000e+00  -2.8673127237760143e-03 -3.0058615615388561e-03 0.0000000000000000e+00  -2.8260279720729855e-03 -2.7978639486879999e-03 0.0000000000000000e+00  -2.7754595477750416e