<?xml version="1.0"?>
<VTKFile type="UnstructuredGrid"  version="0.1"  >
<UnstructuredGrid>
<Piece  NumberOfPoints="1380" NumberOfCells="2630">
<Points>
<DataArray  type="Float64"  NumberOfComponents="3"  format="ascii">-1 -1 0  1 -1 0  1 1 0  -1 1 0  0 -1 0  1 0 0  0 1 0  -1 0 0  0 0 0  -1 -0.5 0  -0.5 -1 0  -0.5 1 0  -1 0.5 0  1 -0.5 0  0.5 -1 0  1 0.5 0  0.5 1 0  0.4166666666666666 -0.4166666666666667 0  -0.4166666666666667 0.4166666666666667 0  -0.25 -0.5 0  0.5 0.25 0  -0.4861111111111112 -0.06944444444444445 0  0.0732758620689655 0.507183908045977 0  -0.625 -0.625 0  0.625 0.625 0  0.7380952380952381 -0.25 0  -0.7099116161616161 0.2105429292929293 0  -0.25 0.7380952380952381 0  0.105392156862745 -0.6348039215686275 0  0.6770833333333334 -0.6770833333333333 0  -0.6770833333333334 0.6770833333333334 0  0.3472222222222222 -0.06944444444444446 0  -0.7264957264957265 -0.3044871794871795 0  0.3141940982507127 0.7297313660835709 0  0.02049587951122483 -0.3227479397556124 0  -0.2690972222222223 0.1475694444444444 0  0.3859500089908372 -0.7274430156831472 0  -0.2228477945123298 -0.1761765495248019 0  0.2182539682539683 0.1884920634920635 0  0.75 0.375 0  -0.145442219440968 -0.7602211097204841 0  0.7088913690476191 0.0427827380952381 0  -0.75 -1 0  -1 -0.75 0  1 0.75 0  0.75 1 0  -0.7439982703698937 -0.04614153195464455 0  -0.4609235096577606 -0.3356498099556895 0  0.4063134471431929 0.4895621842856023 0  0.25 -1 0  -0.25 -1 0  -0.75 1 0  0.75 -1 0  -1 -0.25 0  -1 0.25 0  1 -0.25 0  -0.25 1 0  1 -0.75 0  -1 0.75 0  0.25 1 0  1 0.25 0  -0.4041423272138783 -0.7597141090712928 0  0.06500839607911253 0.7578103030529481 0  -0.1572801182352047 0.3838997021864289 0  -0.6528005242053915 0.4409494757946086 0  -0.4930160984848485 0.1544744318181818 0  -0.4732142857142858 0.7752976190476191 0  0.6398809523809523 -0.4538690476190476 0  0.5166054117396399 -0.2161233620965164 0  -0.002273787244753427 0.2232363985975174 0  0.1500564496765022 -0.1524955293952667 0  0.2016720420046758 -0.4410343282803009 0  -0.08495178036419618 0.6274139771124571 0  -0.8367311471133162 0.3642591720794645 0  -0.8333333333333334 -0.625 0  -0.594323836800685 -0.8231079456002283 0  -0.4466957714776065 -0.5349126855671806 0  0.8125 0.5625 0  0.78125 0.78125 0  0.5091392650016769 0.7947130883338923 0  0.125 -0.8382681931833136 0  -0.8184523809523809 -0.8184523809523809 0  -0.07781530426104531 -0.5819319697006881 0  0.5085055196703295 0.04967610411902112 0  0.2918471072074933 -0.276017202318847 0  0.5120763537765269 -0.5898771553229597 0  0.625 -0.8585349462365591 0  0.8158532234335381 -0.8158532234335381 0  -0.5198088446315396 0.5739411553684605 0  -0.8585349462365591 0.625 0  -0.8150493805516597 0.8156205699829586 0  0.8585349462365591 -0.625 0  -0.2688268348649726 0.5439331383603209 0  0.8242100426758139 -0.4436043596336612 0  0.5833756314287952 0.4479378157143976 0  0.8690476190476191 -0.125 0  -0.125 0.8690476190476191 0  -0.8692745600729823 0.125 0  0.8696725120759167 0.125 0  -0.625 0.8711516477451908 0  0.2339522463269718 0.3879558377955778 0  0.2453709502295031 0.5655822922838026 0  0.1730610651637797 0.02021709580868947 0  0.3245402594056757 -0.5644672020485209 0  -0.7291666666666666 -0.4816595441595442 0  -1 -0.375 0  -0.5811140848639904 -0.2127276307675001 0  0.673332592838314 0.2158348143233718 0  0.375 1 0  -0.5714768890989919 0.2985103444040069 0  -1 -0.125 0  -0.8453692574786325 -0.1875 0  -0.3144549134065865 -0.02408675326008025 0  -0.2898414972096258 -0.3336092734780093 0  -0.1075052092206287 -0.4224330421314983 0  -0.05043970703604117 -0.1652278959397459 0  0.6459672950297897 -0.1113415301525317 0  0.4645210271029513 0.6398480556579343 0  0.3512863754411909 0.0937979496253573 0  -0.6063160985568274 0.03891469652249891 0  -0.3428819444444445 0.8690476190476191 0  0.625 1 0  -0.1602164796159982 0.02697860906625157 0  0.04648110064133829 -0.4808416424239687 0  1 0.875 0  -0.3836102479201657 0.6484936449177356 0  -0.3776011723096096 0.263078478984336 0  -0.6024978259969829 -0.3949628096211138 0  0.125 1 0  0.2010781308272777 0.8456221018461906 0  0.2822509696388829 -0.845902544691141 0  -0.3285533674953515 -0.6289773550938936 0  0.3461306793221754 0.278777492464833 0  0.4737475672408696 -0.8508448959534423 0  0.2384632828836344 -0.7029523187242811 0  -0.004777287059791593 0.3759269695907358 0  -0.8499735021850066 -0.3912320205328522 0  0.1222536293721587 0.2963971539625205 0  -0.3769456520999688 -0.203572526805711 0  -0.2749617205755651 -0.8464290792698902 0  0.004805888512766143 -0.747174355248311 0  -0.125 -1 0  -0.06001061822252458 -0.8724007765244854 0  0.875 0.4375 0  0.854421179608893 0.271342359217786 0  0.875 1 0  -0.1499861095763589 0.2358309656934888 0  0.3381943639137225 0.8663061796405532 0  -0.7853090110442228 0.4998412775277108 0  0.7398165998560814 -0.5535192694951373 0  0.1580042122341573 -0.3100246140259917 0  -0.7291666666666667 -0.7142857142857142 0  -0.375 -1 0  0.6483368386154684 0.8514905990110488 0  -0.1295370103291928 -0.2826118305021242 0  0.07458201853700455 0.1123894386563915 0  0.6146465857036327 -0.3161203659316075 0  0.5551898493894731 -0.740296118159085 0  0.375 -1 0  0.482702798370208 -0.084133350091034 0  0.87890625 0.68359375 0  -0.05917195534525846 0.4971092425697621 0  0.1260710309213975 0.6343750312956699 0  0.8690476190476191 -0.3077066815262848 0  -0.2912010232560567 0.3668168386732139 0  -0.875 1 0  -1 0.875 0  1 -0.875 0  0.875 -1 0  -0.8689564281364567 -0.006189266075306407 0  -0.7449425635110547 0.08458938160051771 0  -0.7150266761936593 -0.1739444581417552 0  -0.5260034831318311 -0.711099823962112 0  -0.4724626808827322 -0.871722230709409 0  0.4734436795977052 0.377714794132168 0  -0.875 -1 0  -1 -0.875 0  0.6927189078571988 0.5156567235715964 0  -0.3742497615796874 -0.4296005251260107 0  -0.1969436423297711 -0.6387157229772615 0  -0.6179496409766825 -0.08933356056510935 0  -0.424405057115988 0.04452428810878029 0  -0.08479048335844169 0.1279607007132633 0  0.003830300099055113 0.8712085230656206 0  0.8748778838820267 -1.379218479898026e-05 0  -0.375 1 0  -0.625 1 0  1 0.125 0  -0.125 1 0  1 -0.375 0  1 -0.125 0  1 -0.625 0  0.625 -1 0  0.125 -1 0  -0.625 -1 0  -1 -0.625 0  -1 0.125 0  -1 0.375 0  -1 0.625 0  1 0.375 0  1 0.625 0  0.6325660748712082 0.3335187599557389 0  -0.06420945895056573 0.7549874027425891 0  -0.8769015540914771 0.2478802253893416 0  0.871875 0.871875 0  -0.6868091492840067 0.3270978624973681 0  -0.5363597469565949 0.412994850055505 0  -0.6803734992638302 0.5574295000651103 0  -0.7076253581162534 -0.8803439094224437 0  -0.8778089002295137 -0.5106896447504627 0  -0.3860184984222981 0.530566778071246 0  0.6109900617121508 0.1128453077697081 0  0.3896945134930274 -0.1915382873255086 0  0.7605656944697778 -0.06822134873122943 0  0.3576151269893478 0.5948388411612135 0  -0.5689902680792265 -0.5143596830118065 0  0.6262446286847614 -0.5735657901943212 0  0.2030558252325225 -0.5625263842513452 0  0.6123273142928579 0.7407533260723429 0  0.4016460890123554 -0.3042863223111857 0  -0.59039693199147 0.7578418819188018 0  0.7276932493917544 -0.3705808024528924 0  0.5222536818742854 -0.4713886230400014 0  -0.5101986527137737 0.8848365765607674 0  0.510560172809238 0.5356013299918891 0  -0.3603569195756083 0.75823710606415 0  0.1967279277813232 0.728226870058472 0  -0.6086880986371127 0.1545624071548516 0  -0.38105366729386 0.1511189987807864 0  -0.2944659463671584 -0.7359061804869591 0  0.5060729154966499 -0.3475227845833823 0  -0.09281616240412746 -0.06197858250969457 0  0.7649739583333334 0.6673177083333334 0  0.7628906249999999 0.890234375 0  -0.2666864184909611 0.2585504071132311 0  0.3635064892129658 0.3878003602709461 0  -0.2339409722222222 0.8901937905844155 0  -0.1718792125974916 -0.8957733325456778 0  0.1001768566329531 0.4023510017391879 0  0.3120260172693757 -0.4540546875576884 0  0.7804062804433681 0.1896628610854537 0  0.4087715451998049 0.187961780041608 0  -0.1584963477271457 0.5451611892421655 0  -0.8926817849258324 0.463022006336401 0  0.2338091473445219 -0.07576267331277289 0  0.08171112182813692 -0.2349087687359925 0  0.04635385178956847 -0.1044635073718474 0  -0.4377391632114205 -0.6448874471423088 0  -0.1907678351227189 0.6480215912813945 0  0.300605946475244 0.4741444604171038 0  -0.2145033720757486 -0.06751709909419711 0  0.6069191921170397 -0.005492331448357812 0  0.0214718770761248 0.6032397936031719 0  0.5476675683364878 0.8992752415326501 0  0.4387475014316537 0.9093708953002239 0  -0.4932997685306436 -0.4381009159993523 0  0.2515197695339056 -0.1791673369138964 0  -0.7291666666666667 -0.6088789682539681 0  -0.9166666666666667 -0.6875 0  0.620579540363709 -0.2122431523583302 0  -0.484950136419973 0.6719440339397442 0  0.2857044415400258 0.0137589173127316 0  -0.8945708364098356 -0.288306105327986 0  0.4043102720140535 0.7842914560451557 0  0.04123256238752064 -0.9026968245801402 0  0.2003676884403109 -0.9091888601740487 0  0.1068775558538842 -0.7373377130403223 0  -0.4804566783514427 -0.1763307203045643 0  0.108286342087769 -0.3993789328997278 0  -0.191883080105361 -0.3640821726430649 0  -0.07025064492006244 0.2984876656890053 0  -0.7039324641409584 0.788312126296613 0  -0.7311286585775438 0.8932502354831682 0  0.5171409396884947 0.1503852691889257 0  0.4229392823658633 -0.003216522184234835 0  -0.5621736087218259 -0.919558629836806 0  -0.626474064879544 -0.7266572613636506 0  0.2446828746617422 0.2867616783302419 0  0.1759429608742923 0.4776611759306416 0  -0.3468240303741654 -0.5260416435617549 0  -0.7465808808425306 0.4069574477998361 0  -0.7819962170660292 0.2802441065650652 0  -0.3742623214119594 -0.8547800509641984 0  0.1014498009713561 0.8506721983266377 0  0.4285217620918213 -0.5230190595570253 0  0.4091738370487775 -0.6256346204225141 0  0.78125 0.46875 0  0.90625 0.53125 0  -0.4791801348852565 0.2553992655702126 0  0.7843318610782772 -0.7086046956885941 0  0.8909728264971901 -0.7355183796514634 0  0.7041908166528879 -0.7830649143180282 0  0.7311821352
[...]
<PointData  Vectors="f_22"> 
<DataArray  type="Float64"  Name="f_22"  NumberOfComponents="3" format="ascii">-1.7152330427452792e-02 -1.5942258877964161e-02 0.0000000000000000e+00  -1.7152330427452792e-02 -1.5942258877964161e-02 0.0000000000000000e+00  -1.7152330427452792e-02 -1.5942258877964161e-02 0.0000000000000000e+00  -1.7152330427452792e-02 -1.5942258877964161e-02 0.0000000000000000e+00  -1.7037242781971513e-02 -2.1621049653384166e-02 0.0000000000000000e+00  -2.2550890624135088e-02 -1.5825648017487613e-02 0.0000000000000000e+00  -1.7037242781971513e-02 -2.1621049653384166e-02 0.0000000000000000e+00  -2.2550890624135088e-02 -1.5825648017487613e-02 0.0000000000000000e+00  -2.2669490519930450e-02 -2.1741471841559057e-02 0.0000000000000000e+00  -6.8431567467469520e-03 -1.5877652864772693e-02 0.0000000000000000e+00  -1.7088334791604202e-02 -5.8140866590936056e-03 0.0000000000000000e+00  -1.7088334791604202e-02 -5.8140866590936056e-03 0.0000000000000000e+00  -3.2868612490680363e-02 -1.5875961662360435e-02 0.0000000000000000e+00  -6.8431567467469520e-03 -1.5877652864772693e-02 0.0000000000000000e+00  -1.7087934005454414e-02 -3.1758234316926787e-02 0.0000000000000000e+00  -3.2868612490680363e-02 -1.5875961662360435e-02 0.0000000000000000e+00  -1.7087934005454414e-02 -3.1758234316926787e-02 0.0000000000000000e+00  -7.9579272842830364e-03 -3.2016528169749932e-02 0.0000000000000000e+00  -3.3089515922056993e-02 -6.9649572512543991e-03 0.0000000000000000e+00  -6.8849544170356564e-03 -1.1702407347895899e-02 0.0000000000000000e+00  -3.1043951127802481e-02 -3.1792398468417436e-02 0.0000000000000000e+00  -1.9750100373931410e-02 -5.9697488765569256e-03 0.0000000000000000e+00  -3.2811135555137601e-02 -2.4582787507484431e-02 0.0000000000000000e+00  -6.8424508150293252e-03 -5.7565063949472544e-03 0.0000000000000000e+00  -3.0873714734949039e-02 -2.9711495864474514e-02 0.0000000000000000e+00  -1.2551525695858145e-02 -2.6250469941386512e-02 0.0000000000000000e+00  -2.9976444010017207e-02 -6.6968413350872924e-03 0.0000000000000000e+00  -2.7447378344043573e-02 -1.1610732917647968e-02 0.0000000000000000e+00  -6.8185060297871825e-03 -2.5711828349095238e-02 0.0000000000000000e+00  -7.3224472750705091e-03 -2.8227490802484784e-02 0.0000000000000000e+00  -2.9407009138474979e-02 -6.2123616938756700e-03 0.0000000000000000e+00  -1.9751990933737060e-02 -3.1642958445878951e-02 0.0000000000000000e+00  -1.0821699535875128e-02 -7.0900994230767228e-03 0.0000000000000000e+00  -2.7815866140432102e-02 -3.1220266708149265e-02 0.0000000000000000e+00  -1.0294387764481012e-02 -2.2544017996543493e-02 0.0000000000000000e+00  -2.8160266738188524e-02 -1.1023376420443853e-02 0.0000000000000000e+00  -8.1566554728126177e-03 -3.1900625606355586e-02 0.0000000000000000e+00  -1.5417475677061029e-02 -1.2701397920895500e-02 0.0000000000000000e+00  -2.9460641656969690e-02 -2.9296173437498105e-02 0.0000000000000000e+00  -3.2951839034215807e-02 -2.5927932434528095e-02 0.0000000000000000e+00  -8.9260746119366255e-03 -1.5641397251321690e-02 0.0000000000000000e+00  -2.4304602300652837e-02 -2.7261289826189854e-02 0.0000000000000000e+00  -1.7130934841299756e-02 -7.6127335420360766e-03 0.0000000000000000e+00  -8.7534229728970965e-03 -1.5920862424325919e-02 0.0000000000000000e+00  -2.7141124140025841e-02 -1.5919808743527379e-02 0.0000000000000000e+00  -1.7131386438513523e-02 -2.5939888714322984e-02 0.0000000000000000e+00  -2.0671964737592845e-02 -7.3988882842914968e-03 0.0000000000000000e+00  -9.9526922795734937e-03 -6.3207784315549125e-03 0.0000000000000000e+00  -3.3001387274486996e-02 -3.2089907706241004e-02 0.0000000000000000e+00  -1.7051074630966279e-02 -2.9968762820343012e-02 0.0000000000000000e+00  -1.7051418564074709e-02 -1.1616421837810491e-02 0.0000000000000000e+00  -1.7130934841299756e-02 -7.6127335420360766e-03 0.0000000000000000e+00  -1.7131386438513523e-02 -2.5939888714322984e-02 0.0000000000000000e+00  -1.2557778084667301e-02 -1.5840638652224653e-02 0.0000000000000000e+00  -3.0965422607199845e-02 -1.5839052737976405e-02 0.0000000000000000e+00  -1.2557778084667301e-02 -1.5840638652224653e-02 0.0000000000000000e+00  -1.7051418564074709e-02 -1.1616421837810491e-02 0.0000000000000000e+00  -8.7534229728970965e-03 -1.5920862424325919e-02 0.0000000000000000e+00  -2.7141124140025841e-02 -1.5919808743527379e-02 0.0000000000000000e+00  -1.7051074630966279e-02 -2.9968762820343012e-02 0.0000000000000000e+00  -3.0965422607199845e-02 -1.5839052737976405e-02 0.0000000000000000e+00  -8.9641371175345434e-03 -7.2803896896777177e-03 0.0000000000000000e+00  -2.6796476743806915e-02 -2.4222831385167162e-02 0.0000000000000000e+00  -3.2987946453618779e-02 -1.5188148897849753e-02 0.0000000000000000e+00  -3.3098985231764418e-02 -5.8823916478026811e-03 0.0000000000000000e+00  -2.8348138926873524e-02 -5.8584295929479729e-03 0.0000000000000000e+00  -2.6134528683676179e-02 -6.0663176893835311e-03 0.0000000000000000e+00  -7.3285748493399812e-03 -2.9220619772291644e-02 0.0000000000000000e+00  -1.3801595642033912e-02 -3.1544793312662869e-02 0.0000000000000000e+00  -3.0400188178227740e-02 -2.1637801909926258e-02 0.0000000000000000e+00  -1.6340726748233617e-02 -2.7294036483275219e-02 0.0000000000000000e+00  -7.5523386781507634e-03 -2.8784692304814116e-02 0.0000000000000000e+00  -3.0723843484727689e-02 -1.8131931539362576e-02 0.0000000000000000e+00  -3.2800346797624481e-02 -9.8343554571154370e-03 0.0000000000000000e+00  -6.8302771165587289e-03 -9.8443024827605651e-03 0.0000000000000000e+00  -1.0699722415494347e-02 -5.5808367162606337e-03 0.0000000000000000e+00  -6.6778117113943658e-03 -6.5345099415119578e-03 0.0000000000000000e+00  -3.2117598105235109e-02 -2.3616174049532073e-02 0.0000000000000000e+00  -2.6029310365036498e-02 -2.4822650968375024e-02 0.0000000000000000e+00  -2.5505624774758668e-02 -3.1701528124078837e-02 0.0000000000000000e+00  -1.1051608740656752e-02 -2.6373565243269666e-02 0.0000000000000000e+00  -1.0575414311970429e-02 -9.4096492209786806e-03 0.0000000000000000e+00  -6.5703077863797782e-03 -1.8460605340337777e-02 0.0000000000000000e+00  -2.4612997404840409e-02 -3.1678066411013291e-02 0.0000000000000000e+00  -1.1713446454754757e-02 -3.0835645361920620e-02 0.0000000000000000e+00  -6.5357191199265519e-03 -3.1578347151684769e-02 0.0000000000000000e+00  -1.1759176564900296e-02 -2.9649775070023188e-02 0.0000000000000000e+00  -1.0455176698152437e-02 -2.3456475445786489e-02 0.0000000000000000e+00  -3.1818024321506246e-02 -5.6082662322355968e-03 0.0000000000000000e+00  -3.0812131733898396e-02 -1.0578277666385930e-02 0.0000000000000000e+00  -2.4675884768630956e-02 -9.2664303474937464e-03 0.0000000000000000e+00  -6.7787501858521384e-03 -2.1718532892218312e-02 0.0000000000000000e+00  -3.2310967989775202e-02 -1.0975572600382535e-02 0.0000000000000000e+00  -7.4966920163671603e-03 -2.3061046984419690e-02 0.0000000000000000e+00  -3.3190163017409131e-02 -3.0610398521264001e-02 0.0000000000000000e+00  -1.7363199730754886e-02 -2.1249216239382217e-02 0.0000000000000000e+00  -2.2465490265316142e-02 -1.6439810734977564e-02 0.0000000000000000e+00  -2.7326490767276914e-02 -1.0884531836590888e-02 0.0000000000000000e+00  -2.7340487874944436e-02 -2.1248233494510063e-02 0.0000000000000000e+00  -2.2421116364887635e-02 -5.6946522150084474e-03 0.0000000000000000e+00  -3.3066776159416632e-02 -2.9682012995124591e-02 0.0000000000000000e+00  -3.2056117273584483e-02 -2.9931740277217039e-02 0.0000000000000000e+00  -2.3484723708075816e-02 -2.8025905905589434e-02 0.0000000000000000e+00  -6.5006861471931764e-03 -3.1306901056533075e-02 0.0000000000000000e+00  -7.0654148885590604e-03 -7.1721345711588452e-03 0.0000000000000000e+00  -8.8634995867769260e-03 -1.5856986208855662e-02 0.0000000000000000e+00  -1.3979478023485065e-02 -5.5288946474519197e-03 0.0000000000000000e+00  -3.0171695800784604e-02 -2.8384296909965027e-02 0.0000000000000000e+00  -1.7067410163664299e-02 -3.1859975271214883e-02 0.0000000000000000e+00  -3.1933061825612723e-02 -5.4423176610212875e-03 0.0000000000000000e+00  -1.7363641610157375e-02 -1.5829355964798321e-02 0.0000000000000000e+00  -1.4886454197804579e-02 -1.0141986826631921e-02 0.0000000000000000e+00  -2.1659959509919755e-02 -9.5889111531085886e-03 0.0000000000000000e+00  -1.0013406262071563e-02 -1.0374486746389137e-02 0.0000000000000000e+00  -7.9245216181041012e-03 -1.7256320166077886e-02 0.0000000000000000e+00  -1.5848115493325980e-02 -1.9655247426250182e-02 0.0000000000000000e+00  -1.7951139742599345e-02 -2.9084438288403389e-02 0.0000000000000000e+00  -3.0503386123790582e-02 -3.2042946063719616e-02 0.0000000000000000e+00  -2.6313509925799373e-02 -3.1707900807975108e-02 0.0000000000000000e+00  -2.4161057396456732e-02 -5.5562775271387910e-03 0.0000000000000000e+00  -2.2467557877947922e-02 -8.6905682917113800e-03 0.0000000000000000e+00  -1.7110110463430101e-02 -2.9678731547093100e-02 0.0000000000000000e+00  -2.3753452195173098e-02 -1.5117652324925884e-02 0.0000000000000000e+00  -7.0287852165757435e-03 -2.3542897826626379e-02 0.0000000000000000e+00  -2.2331526162318906e-02 -1.5935484782282839e-02 0.0000000000000000e+00  -3.0165309261819300e-02 -7.6585800096430224e-03 0.0000000000000000e+00  -3.1276709192801615e-02 -7.8316553685098562e-03 0.0000000000000000e+00  -8.4838337872100416e-03 -5.6145816522354111e-03 0.0000000000000000e+00  -1.7040761941470743e-02 -2.6372467011909567e-02 0.0000000000000000e+00  -2.3457488713801284e-02 -2.8758880321649472e-02 0.0000000000000000e+00  -1.1294412545726882e-02 -3.0623130325429290e-02 0.0000000000000000e+00  -6.8484163904021797e-03 -9.1687116025777494e-03 0.0000000000000000e+00  -3.1667525292920481e-02 -3.1668752190988747e-02 0.0000000000000000e+00  -1.1475650959861174e-02 -3.1922838259203543e-02 0.0000000000000000e+00  -7.6955474922805042e-03 -2.9693773812713695e-02 0.0000000000000000e+00  -3.2958450623785294e-02 -2.1515356036487292e-02 0.0000000000000000e+00  -8.5238643611417666e-03 -1.0327347206914070e-02 0.0000000000000000e+00  -3.1986885897901642e-02 -2.6382408183548998e-02 0.0000000000000000e+00  -1.4351184412620722e-02 -7.9134575088745315e-03 0.0000000000000000e+00  -1.1367655769279691e-02 -1.0787514237646597e-02 0.0000000000000000e+00  -8.5984086693788545e-03 -2.1840707140405410e-02 0.0000000000000000e+00  -1.7040826793417663e-02 -1.6440300552953424e-02 0.0000000000000000e+00  -1.2190511672173167e-02 -1.9149739012815793e-02 0.0000000000000000e+00  -3.3166314476586203e-02 -2.1078836328193084e-02 0.0000000000000000e+00  -3.1450784504491458e-02 -2.1896485946730597e-02 0.0000000000000000e+00  -1.7146438601242962e-02 -2.1114621823506326e-02 0.0000000000000000e+00  -3.0694444942981278e-02 -1.5506642325517864e-02 0.0000000000000000e+00  -2.2637548511707850e-02 -3.1523284988226749e-02 0.0000000000000000e+00  -3.2831569372562472e-02 -8.3739146728193919e-03 0.0000000000000000e+00  -6.5332681534585723e-03 -2.6205805110456268e-02 0.0000000000000000e+00  -1.0652685213517886e-02 -2.7523711264698346e-02 0.0000000000000000e+00  -8.0295123132794466e-03 -7.1892088169345988e-03 0.0000000000000000e+00  -1.7067824568492148e-02 -7.8854502118261057e-03 0.0000000000000000e+00  -2.3284355020327392e-02 -2.9112365022387406e-02 0.0000000000000000e+00  -1.1551516826916075e-02 -1.6364911641178471e-02 0.0000000000000000e+00  -2.6997761434181332e-02 -2.4672768761652399e-02 0.0000000000000000e+00  -1.0413284509393498e-02 -2.9835492215819950e-02 0.0000000000000000e+00  -8.4468710214996735e-03 -3.1022072498846608e-02 0.0000000000000000e+00  -1.7067410163664299e-02 -3.1859975271214883e-02 0.0000000000000000e+00  -1.9113018770024429e-02 -3.1879612366870133e-02 0.0000000000000000e+00  -2.9301546408379960e-02 -2.0949421078672540e-02 0.0000000000000000e+00  -3.2879413109045998e-02 -1.9234645861057879e-02 0.0000000000000000e+00  -3.0592109677032485e-02 -2.6464089793576742e-02 0.0000000000000000e+00  -1.0663004933546980e-02 -2.1249333395369090e-02 0.0000000000000000e+00  -3.2840703259036950e-02 -1.0257317636300453e-02 0.0000000000000000e+00  -1.7146490613267808e-02 -1.1203744518500732e-02 0.0000000000000000e+00  -2.2331526162318906e-02 -1.5935484782282839e-02 0.0000000000000000e+00  -1.2387125923425842e-02 -1.5936430257156117e-02 0.0000000000000000e+00  -1.7146438601242962e-02 -2.1114621823506326e-02 0.0000000000000000e+00  -2.2305411799468728e-02 -1.0884183040656479e-02 0.0000000000000000e+00  -2.5889477782217056e-02 -7.3993300328030961e-03 0.0000000000000000e+00  -1.5440292193185641e-02 -6.8477344543338321e-03 0.0000000000000000e+00  -7.9599759601854062e-03 -5.6711492915589769e-03 0.0000000000000000e+00  -1.2239303790179597e-02 -6.1300394652303468e-03 0.0000000000000000e+00  -3.3002418237671728e-02 -3.2002408952379970e-02 0.0000000000000000e+00  -1.7146490613267808e-02 -1.1203744518500732e-02 0.0000000000000000e+00  -1.2387125923425842e-02 -1.5936430257156117e-02 0.0000000000000000e+00  -3.2760736365594255e-02 -2.7845056035155344e-02 0.0000000000000000e+00  -7.8215528159536925e-03 -7.9845677533580649e-03 0.0000000000000000e+00  -6.9091286242058247e-03 -1.3632736098866541e-02 0.0000000000000000e+00  -1.8898444974105845e-02 -5.6422153331537285e-03 0.0000000000000000e+00  -2.4412521517595036e-02 -6.8687885301694030e-03 0.0000000000000000e+00  -2.7530085950933054e-02 -1.8215321495573256e-02 0.0000000000000000e+00  -2.2386551785373080e-02 -2.1784838130212727e-02 0.0000000000000000e+00  -2.2556491427717207e-02 -2.1018921641087644e-02 0.0000000000000000e+00  -1.7067824568492148e-02 -7.8854502118261057e-03 0.0000000000000000e+00  -1.7110058684710699e-02 -5.7186414122977923e-03 0.0000000000000000e+00  -2.7327056679246529e-02 -1.5828983306124842e-02 0.0000000000000000e+00  -1.7040826793417663e-02 -1.6440300552953424e-02 0.0000000000000000e+00  -8.8634995867769260e-03 -1.5856986208855662e-02 0.0000000000000000e+00  -1.7363641610157375e-02 -1.5829355964798321e-02 0.0000000000000000e+00  -6.8056715369081283e-03 -1.5899643191262035e-02 0.0000000000000000e+00  -1.7110110463430101e-02 -2.9678731547093100e-02 0.0000000000000000e+00  -1.7040761941470743e-02 -2.6372467011909567e-02 0.0000000000000000e+00  -1.7110058684710699e-02 -5.7186414122977923e-03 0.0000000000000000e+00  -6.8056715369081283e-03 -1.5899643191262035e-02 0.0000000000000000e+00  -2.7327056679246529e-02 -1.5828983306124842e-02 0.0000000000000000e+00  -3.2912003395942725e-02 -1.5855458484808804e-02 0.0000000000000000e+00  -3.0841286605556982e-02 -1.5898790766446159e-02 0.0000000000000000e+00  -3.2912003395942725e-02 -1.5855458484808804e-02 0.0000000000000000e+00  -3.0841286605556982e-02 -1.5898790766446159e-02 0.0000000000000000e+00  -3.2536033364438381e-02 -2.9505706346941531e-02 0.0000000000000000e+00  -2.6876827264523413e-02 -1.8980334252261786e-02 0.0000000000000000e+00  -3.0908162233319224e-02 -1.1144110864465375e-02 0.0000000000000000e+00  -2.2465532159815178e-02 -2.1247659345641351e-02 0.0000000000000000e+00  -3.2369297990745470e-02 -6.3158742807900292e-03 0.0000000000000000e+00  -3.3074536358243090e-02 -5.5146045895619940e-03 0.0000000000000000e+00  -3.2112020288934562e-02 -6.2388244083584586e-03 0.0000000000000000e+00  -1.2568658267432841e-02 -6.7757449976557195e-03 0.0000000000000000e+00  -6.7820766200789150e-03 -1.1269197042126557e-02 0.0000000000000000e+00  -3.2481619052866742e-02 -7.6065708393293118e-03 0.0000000000000000e+00  -2.6960377536469710e-02 -2.9982661095371205e-02 0.0000000000000000e+00  -1.4757126747417915e-02 -3.1955467403663999e-02 0.0000000000000000e+00  -1.9734483154294078e-02 -2.5474819565395108e-02 0.0000000000000000e+00  -3.1523370863072303e-02 -3.1772753323536990e-02 0.0000000000000000e+00  -6.7912386500663755e-03 -5.5554729519281731e-03 0.0000000000000000e+00  -6.5128183553368451e-03 -2.9569001269993997e-02 0.0000000000000000e+00  -6.5125319114612418e-03 -2.8805797441524821e-02 0.0000000000000000e+00  -2.7474279513720081e-02 -3.0003122854736212e-02 0.0000000000000000e+00  -1.0791577244893732e-02 -3.1990145853588017e-02 0.0000000000000000e+00  -2.6779888302437001e-02 -5.4972458770275101e-03 0.0000000000000000e+00  -8.9447267565916887e-03 -2.6602330748209689e-02 0.0000000000000000e+00  -7.0917565787733585e-03 -3.1459181464414447e-02 0.0000000000000000e+00  -2.1840690490758763e-02 -5.7109079907451321e-03 0.0000000000000000e+00  -3.2530215252919291e-02 -3.1704705910834033e-02 0.0000000000000000e+00  -2.6742747961344061e-02 -8.2247839441730655e-03 0.0000000000000000e+00  -2.7846069762380160e-02 -2.8658162503003428e-02 0.0000000000000000e+00  -2.8334051703226244e-02 -5.5495884339821196e-03 0.0000000000000000e+00  -2.8257918002177154e-02 -7.7668602597732068e-03 0.0000000000000000e+00  -8.4113466158719664e-03 -1.0176501613832659e-02 0.0000000000000000e+00  -9.5367264311926499e-03 -3.1642889415917100e-02 0.0000000000000000e+00  -2.0099909288460251e-02 -1.7890242104189432e-02 0.0000000000000000e+00  -2.9776894362218753e-02 -2.5419805391214027e-02 0.0000000000000000e+00  -2.1703799304404064e-02 -2.5492717018306587e-02 0.0000000000000000e+00  -3.1196691948183381e-02 -1.1088589074499788e-02 0.0000000000000000e+00  -3.3071630499315677e-02 -3.1839548236032848e-02 0.0000000000000000e+00  -2.1593917777990544e-02 -1.2182494366238507e-02 0.0000000000000000e+00  -1.3023833560291107e-02 -1.4559470310321471e-02 0.0000000000000000e+00  -3.3122981786241394e-02 -2.5592335443401833e-02 0.0000000000000000e+00  -7.3375377067745389e-03 -3.1138098049590984e-02 0.0000000000000000e+00  -2.9422992207514570e-02 -2.4787639236087431e-02 0.0000000000000000e+00  -2.9433768073252660e-02 -3.2086270779147136e-02 0.0000000000000000e+00  -3.2308223091327797e-02 -1.5112773357697239e-02 0.0000000000000000e+00  -3.3075765157441386e-02 -1.1719329602029326e-02 0.0000000000000000e+00  -1.9503385085117210e-02 -2.9662781176905281e-02 0.0000000000000000e+00  -1.3174181389462209e-02 -2.4917417474105044e-02 0.0000000000000000e+00  -1.8323441633089282e-02 -2.3587648182541346e-02 0.0000000000000000e+00  -7.0078448663945161e-03 -6.6702306180797498e-03 0.0000000000000000e+00  -3.0190549710483943e-02 -1.3820128218814636e-02 0.0000000000000000e+00  -3.3092942246013765e-02 -3.1038614175359091e-02 0.0000000000000000e+00  -1.9864060758459687e-02 -1.3008429582709129e-02 0.0000000000000000e+00  -2.2372683546191770e-02 -3.0051885660887286e-02 0.0000000000000000e+00  -3.1292946358966477e-02 -2.2542132365894654e-02 0.0000000000000000e+00  -2.1303379409268883e-02 -3.1203844714033434e-02 0.0000000000000000e+00  -2.0864761141892976e-02 -3.2078164406452836e-02 0.0000000000000000e+00  -7.6783650707534790e-03 -5.9366654866024500e-03 0.0000000000000000e+00  -1.5262124529623344e-02 -3.0055425221650316e-02 0.0000000000000000e+00  -6.7314441733633068e-03 -7.1853088687648505e-03 0.0000000000000000e+00  -7.5555861911239851e-03 -1.2675689250918941e-02 0.0000000000000000e+00  -1.3933162361124778e-02 -2.9706309104950285e-02 0.0000000000000000e+00  -2.9528300028762049e-02 -5.9200011018798650e-03 0.0000000000000000e+00  -2.3212600916153528e-02 -3.0769290458978159e-02 0.0000000000000000e+00  -1.1293595352796863e-02 -1.1810988919701814e-02 0.0000000000000000e+00  -2.5885156618588367e-02 -3.2053288416029065e-02 0.0000000000000000e+00  -1.3248961594127421e-02 -2.3276146130125054e-02 0.0000000000000000e+00  -1.3483800074898834e-02 -2.8714015974721261e-02 0.0000000000000000e+00  -8.3698753097948345e-03 -2.5751402601444724e-02 0.0000000000000000e+00  -1.5389828126149373e-02 -6.0512847262920088e-03 0.0000000000000000e+00  -8.3463181440816218e-03 -2.5852010388736284e-02 0.0000000000000000e+00  -9.2018739048763537e-03 -1.3868261282984597e-02 0.0000000000000000e+00  -3.2000031922657719e-02 -1.8803538617871138e-02 0.0000000000000000e+00  -2.5691742176092158e-02 -6.6534640398294856e-03 0.0000000000000000e+00  -2.1535704703130869e-02 -7.1881315687667893e-03 0.0000000000000000e+00  -2.8255817413148695e-02 -3.1600962371328742e-02 0.0000000000000000e+00  -2.2498996264702989e-02 -3.2083285337057454e-02 0.0000000000000000e+00  -1.3958575022272624e-02 -5.5253820545144005e-03 0.0000000000000000e+00  -8.2672692316252440e