<?xml version="1.0"?>
<VTKFile type="UnstructuredGrid"  version="0.1"  >
<UnstructuredGrid>
<Piece  NumberOfPoints="1380" NumberOfCells="2630">
<Points>
<DataArray  type="Float64"  NumberOfComponents="3"  format="ascii">-1 -1 0  1 -1 0  1 1 0  -1 1 0  0 -1 0  1 0 0  0 1 0  -1 0 0  0 0 0  -1 -0.5 0  -0.5 -1 0  -0.5 1 0  -1 0.5 0  1 -0.5 0  0.5 -1 0  1 0.5 0  0.5 1 0  0.4166666666666666 -0.4166666666666667 0  -0.4166666666666667 0.4166666666666667 0  -0.25 -0.5 0  0.5 0.25 0  -0.4861111111111112 -0.06944444444444445 0  0.0732758620689655 0.507183908045977 0  -0.625 -0.625 0  0.625 0.625 0  0.7380952380952381 -0.25 0  -0.7099116161616161 0.2105429292929293 0  -0.25 0.7380952380952381 0  0.105392156862745 -0.6348039215686275 0  0.6770833333333334 -0.6770833333333333 0  -0.6770833333333334 0.6770833333333334 0  0.3472222222222222 -0.06944444444444446 0  -0.7264957264957265 -0.3044871794871795 0  0.3141940982507127 0.7297313660835709 0  0.02049587951122483 -0.3227479397556124 0  -0.2690972222222223 0.1475694444444444 0  0.3859500089908372 -0.7274430156831472 0  -0.2228477945123298 -0.1761765495248019 0  0.2182539682539683 0.1884920634920635 0  0.75 0.375 0  -0.145442219440968 -0.7602211097204841 0  0.7088913690476191 0.0427827380952381 0  -0.75 -1 0  -1 -0.75 0  1 0.75 0  0.75 1 0  -0.7439982703698937 -0.04614153195464455 0  -0.4609235096577606 -0.3356498099556895 0  0.4063134471431929 0.4895621842856023 0  0.25 -1 0  -0.25 -1 0  -0.75 1 0  0.75 -1 0  -1 -0.25 0  -1 0.25 0  1 -0.25 0  -0.25 1 0  1 -0.75 0  -1 0.75 0  0.25 1 0  1 0.25 0  -0.4041423272138783 -0.7597141090712928 0  0.06500839607911253 0.7578103030529481 0  -0.1572801182352047 0.3838997021864289 0  -0.6528005242053915 0.4409494757946086 0  -0.4930160984848485 0.1544744318181818 0  -0.4732142857142858 0.7752976190476191 0  0.6398809523809523 -0.4538690476190476 0  0.5166054117396399 -0.2161233620965164 0  -0.002273787244753427 0.2232363985975174 0  0.1500564496765022 -0.1524955293952667 0  0.2016720420046758 -0.4410343282803009 0  -0.08495178036419618 0.6274139771124571 0  -0.8367311471133162 0.3642591720794645 0  -0.8333333333333334 -0.625 0  -0.594323836800685 -0.8231079456002283 0  -0.4466957714776065 -0.5349126855671806 0  0.8125 0.5625 0  0.78125 0.78125 0  0.5091392650016769 0.7947130883338923 0  0.125 -0.8382681931833136 0  -0.8184523809523809 -0.8184523809523809 0  -0.07781530426104531 -0.5819319697006881 0  0.5085055196703295 0.04967610411902112 0  0.2918471072074933 -0.276017202318847 0  0.5120763537765269 -0.5898771553229597 0  0.625 -0.8585349462365591 0  0.8158532234335381 -0.8158532234335381 0  -0.5198088446315396 0.5739411553684605 0  -0.8585349462365591 0.625 0  -0.8150493805516597 0.8156205699829586 0  0.8585349462365591 -0.625 0  -0.2688268348649726 0.5439331383603209 0  0.8242100426758139 -0.4436043596336612 0  0.5833756314287952 0.4479378157143976 0  0.8690476190476191 -0.125 0  -0.125 0.8690476190476191 0  -0.8692745600729823 0.125 0  0.8696725120759167 0.125 0  -0.625 0.8711516477451908 0  0.2339522463269718 0.3879558377955778 0  0.2453709502295031 0.5655822922838026 0  0.1730610651637797 0.02021709580868947 0  0.3245402594056757 -0.5644672020485209 0  -0.7291666666666666 -0.4816595441595442 0  -1 -0.375 0  -0.5811140848639904 -0.2127276307675001 0  0.673332592838314 0.2158348143233718 0  0.375 1 0  -0.5714768890989919 0.2985103444040069 0  -1 -0.125 0  -0.8453692574786325 -0.1875 0  -0.3144549134065865 -0.02408675326008025 0  -0.2898414972096258 -0.3336092734780093 0  -0.1075052092206287 -0.4224330421314983 0  -0.05043970703604117 -0.1652278959397459 0  0.6459672950297897 -0.1113415301525317 0  0.4645210271029513 0.6398480556579343 0  0.3512863754411909 0.0937979496253573 0  -0.6063160985568274 0.03891469652249891 0  -0.3428819444444445 0.8690476190476191 0  0.625 1 0  -0.1602164796159982 0.02697860906625157 0  0.04648110064133829 -0.4808416424239687 0  1 0.875 0  -0.3836102479201657 0.6484936449177356 0  -0.3776011723096096 0.263078478984336 0  -0.6024978259969829 -0.3949628096211138 0  0.125 1 0  0.2010781308272777 0.8456221018461906 0  0.2822509696388829 -0.845902544691141 0  -0.3285533674953515 -0.6289773550938936 0  0.3461306793221754 0.278777492464833 0  0.4737475672408696 -0.8508448959534423 0  0.2384632828836344 -0.7029523187242811 0  -0.004777287059791593 0.3759269695907358 0  -0.8499735021850066 -0.3912320205328522 0  0.1222536293721587 0.2963971539625205 0  -0.3769456520999688 -0.203572526805711 0  -0.2749617205755651 -0.8464290792698902 0  0.004805888512766143 -0.747174355248311 0  -0.125 -1 0  -0.06001061822252458 -0.8724007765244854 0  0.875 0.4375 0  0.854421179608893 0.271342359217786 0  0.875 1 0  -0.1499861095763589 0.2358309656934888 0  0.3381943639137225 0.8663061796405532 0  -0.7853090110442228 0.4998412775277108 0  0.7398165998560814 -0.5535192694951373 0  0.1580042122341573 -0.3100246140259917 0  -0.7291666666666667 -0.7142857142857142 0  -0.375 -1 0  0.6483368386154684 0.8514905990110488 0  -0.1295370103291928 -0.2826118305021242 0  0.07458201853700455 0.1123894386563915 0  0.6146465857036327 -0.3161203659316075 0  0.5551898493894731 -0.740296118159085 0  0.375 -1 0  0.482702798370208 -0.084133350091034 0  0.87890625 0.68359375 0  -0.05917195534525846 0.4971092425697621 0  0.1260710309213975 0.6343750312956699 0  0.8690476190476191 -0.3077066815262848 0  -0.2912010232560567 0.3668168386732139 0  -0.875 1 0  -1 0.875 0  1 -0.875 0  0.875 -1 0  -0.8689564281364567 -0.006189266075306407 0  -0.7449425635110547 0.08458938160051771 0  -0.7150266761936593 -0.1739444581417552 0  -0.5260034831318311 -0.711099823962112 0  -0.4724626808827322 -0.871722230709409 0  0.4734436795977052 0.377714794132168 0  -0.875 -1 0  -1 -0.875 0  0.6927189078571988 0.5156567235715964 0  -0.3742497615796874 -0.4296005251260107 0  -0.1969436423297711 -0.6387157229772615 0  -0.6179496409766825 -0.08933356056510935 0  -0.424405057115988 0.04452428810878029 0  -0.08479048335844169 0.1279607007132633 0  0.003830300099055113 0.8712085230656206 0  0.8748778838820267 -1.379218479898026e-05 0  -0.375 1 0  -0.625 1 0  1 0.125 0  -0.125 1 0  1 -0.375 0  1 -0.125 0  1 -0.625 0  0.625 -1 0  0.125 -1 0  -0.625 -1 0  -1 -0.625 0  -1 0.125 0  -1 0.375 0  -1 0.625 0  1 0.375 0  1 0.625 0  0.6325660748712082 0.3335187599557389 0  -0.06420945895056573 0.7549874027425891 0  -0.8769015540914771 0.2478802253893416 0  0.871875 0.871875 0  -0.6868091492840067 0.3270978624973681 0  -0.5363597469565949 0.412994850055505 0  -0.6803734992638302 0.5574295000651103 0  -0.7076253581162534 -0.8803439094224437 0  -0.8778089002295137 -0.5106896447504627 0  -0.3860184984222981 0.530566778071246 0  0.6109900617121508 0.1128453077697081 0  0.3896945134930274 -0.1915382873255086 0  0.7605656944697778 -0.06822134873122943 0  0.3576151269893478 0.5948388411612135 0  -0.5689902680792265 -0.5143596830118065 0  0.6262446286847614 -0.5735657901943212 0  0.2030558252325225 -0.5625263842513452 0  0.6123273142928579 0.7407533260723429 0  0.4016460890123554 -0.3042863223111857 0  -0.59039693199147 0.7578418819188018 0  0.7276932493917544 -0.3705808024528924 0  0.5222536818742854 -0.4713886230400014 0  -0.5101986527137737 0.8848365765607674 0  0.510560172809238 0.5356013299918891 0  -0.3603569195756083 0.75823710606415 0  0.1967279277813232 0.728226870058472 0  -0.6086880986371127 0.1545624071548516 0  -0.38105366729386 0.1511189987807864 0  -0.2944659463671584 -0.7359061804869591 0  0.5060729154966499 -0.3475227845833823 0  -0.09281616240412746 -0.06197858250969457 0  0.7649739583333334 0.6673177083333334 0  0.7628906249999999 0.890234375 0  -0.2666864184909611 0.2585504071132311 0  0.3635064892129658 0.3878003602709461 0  -0.2339409722222222 0.8901937905844155 0  -0.1718792125974916 -0.8957733325456778 0  0.1001768566329531 0.4023510017391879 0  0.3120260172693757 -0.4540546875576884 0  0.7804062804433681 0.1896628610854537 0  0.4087715451998049 0.187961780041608 0  -0.1584963477271457 0.5451611892421655 0  -0.8926817849258324 0.463022006336401 0  0.2338091473445219 -0.07576267331277289 0  0.08171112182813692 -0.2349087687359925 0  0.04635385178956847 -0.1044635073718474 0  -0.4377391632114205 -0.6448874471423088 0  -0.1907678351227189 0.6480215912813945 0  0.300605946475244 0.4741444604171038 0  -0.2145033720757486 -0.06751709909419711 0  0.6069191921170397 -0.005492331448357812 0  0.0214718770761248 0.6032397936031719 0  0.5476675683364878 0.8992752415326501 0  0.4387475014316537 0.9093708953002239 0  -0.4932997685306436 -0.4381009159993523 0  0.2515197695339056 -0.1791673369138964 0  -0.7291666666666667 -0.6088789682539681 0  -0.9166666666666667 -0.6875 0  0.620579540363709 -0.2122431523583302 0  -0.484950136419973 0.6719440339397442 0  0.2857044415400258 0.0137589173127316 0  -0.8945708364098356 -0.288306105327986 0  0.4043102720140535 0.7842914560451557 0  0.04123256238752064 -0.9026968245801402 0  0.2003676884403109 -0.9091888601740487 0  0.1068775558538842 -0.7373377130403223 0  -0.4804566783514427 -0.1763307203045643 0  0.108286342087769 -0.3993789328997278 0  -0.191883080105361 -0.3640821726430649 0  -0.07025064492006244 0.2984876656890053 0  -0.7039324641409584 0.788312126296613 0  -0.7311286585775438 0.8932502354831682 0  0.5171409396884947 0.1503852691889257 0  0.4229392823658633 -0.003216522184234835 0  -0.5621736087218259 -0.919558629836806 0  -0.626474064879544 -0.7266572613636506 0  0.2446828746617422 0.2867616783302419 0  0.1759429608742923 0.4776611759306416 0  -0.3468240303741654 -0.5260416435617549 0  -0.7465808808425306 0.4069574477998361 0  -0.7819962170660292 0.2802441065650652 0  -0.3742623214119594 -0.8547800509641984 0  0.1014498009713561 0.8506721983266377 0  0.4285217620918213 -0.5230190595570253 0  0.4091738370487775 -0.6256346204225141 0  0.78125 0.46875 0  0.90625 0.53125 0  -0.4791801348852565 0.2553992655702126 0  0.7843318610782772 -0.7086046956885941 0  0.8909728264971901 -0.7355183796514634 0  0.7041908166528879 -0.7830649143180282 0  0.7311821352
[...]
<PointData  Vectors="f_22"> 
<DataArray  type="Float64"  Name="f_22"  NumberOfComponents="3" format="ascii">-2.8391463983439978e-03 -2.8825065957261233e-03 0.0000000000000000e+00  -2.8391463983439978e-03 -2.8825065957261233e-03 0.0000000000000000e+00  -2.8391463983439978e-03 -2.8825065957261233e-03 0.0000000000000000e+00  -2.8391463983439978e-03 -2.8825065957261233e-03 0.0000000000000000e+00  -2.8391078668953580e-03 -2.9219090453712756e-03 0.0000000000000000e+00  -2.8812108727870687e-03 -2.8824614460542628e-03 0.0000000000000000e+00  -2.8391078668953580e-03 -2.9219090453712756e-03 0.0000000000000000e+00  -2.8812108727870687e-03 -2.8824614460542628e-03 0.0000000000000000e+00  -2.8812401031489744e-03 -2.9219588028694711e-03 0.0000000000000000e+00  -2.5510871248916661e-03 -2.8824810231575116e-03 0.0000000000000000e+00  -2.8391296103715807e-03 -2.5931279686651678e-03 0.0000000000000000e+00  -2.8391296103715807e-03 -2.5931279686651678e-03 0.0000000000000000e+00  -3.1692741337071605e-03 -2.8824756013401068e-03 0.0000000000000000e+00  -2.5510871248916661e-03 -2.8824810231575116e-03 0.0000000000000000e+00  -2.8391199589542777e-03 -3.2113079983603645e-03 0.0000000000000000e+00  -3.1692741337071605e-03 -2.8824756013401068e-03 0.0000000000000000e+00  -2.8391199589542777e-03 -3.2113079983603645e-03 0.0000000000000000e+00  -2.5670484861382839e-03 -3.2058614662867522e-03 0.0000000000000000e+00  -3.1641629985104795e-03 -2.6087454045743697e-03 0.0000000000000000e+00  -2.5511080906842616e-03 -2.6976083764001474e-03 0.0000000000000000e+00  -3.0936338907264611e-03 -3.2113163006329934e-03 0.0000000000000000e+00  -2.8138357624832590e-03 -2.5942848704567996e-03 0.0000000000000000e+00  -3.1687171507218392e-03 -2.9919551944189715e-03 0.0000000000000000e+00  -2.5665894865918967e-03 -2.6091317757370369e-03 0.0000000000000000e+00  -3.1377025899730045e-03 -3.1802410997908083e-03 0.0000000000000000e+00  -2.6564807587985129e-03 -3.1153438240361349e-03 0.0000000000000000e+00  -3.0666334049792004e-03 -2.6458322027289676e-03 0.0000000000000000e+00  -3.0724121245508246e-03 -2.6975830371886163e-03 0.0000000000000000e+00  -2.5697336032521399e-03 -3.0213283111586177e-03 0.0000000000000000e+00  -2.5865805760299366e-03 -3.1542591476470482e-03 0.0000000000000000e+00  -3.1115287072584290e-03 -2.6293197587364892e-03 0.0000000000000000e+00  -2.8138404342222612e-03 -3.1854973818890319e-03 0.0000000000000000e+00  -2.6197156567590871e-03 -2.6552561469896283e-03 0.0000000000000000e+00  -3.0783009123708759e-03 -3.1710016094593039e-03 0.0000000000000000e+00  -2.6089115556840905e-03 -2.9417979767445914e-03 0.0000000000000000e+00  -3.0172285923857254e-03 -2.6840368547127705e-03 0.0000000000000000e+00  -2.6128808956544678e-03 -3.1985772559988356e-03 0.0000000000000000e+00  -2.7156285370430779e-03 -2.7181740990764040e-03 0.0000000000000000e+00  -3.0501859685055769e-03 -3.1132152915306988e-03 0.0000000000000000e+00  -3.1538099029677510e-03 -3.1068335449345162e-03 0.0000000000000000e+00  -2.6333985163406442e-03 -2.7835486200278562e-03 0.0000000000000000e+00  -2.9224454615713281e-03 -3.1350428021646583e-03 0.0000000000000000e+00  -2.8391361786192135e-03 -2.6697353403159988e-03 0.0000000000000000e+00  -2.6267580332535964e-03 -2.8824995998479536e-03 0.0000000000000000e+00  -3.0638592721014589e-03 -2.8824906491191813e-03 0.0000000000000000e+00  -2.8391385016990748e-03 -3.1068271473995122e-03 0.0000000000000000e+00  -2.8363447439570962e-03 -2.6658763450984157e-03 0.0000000000000000e+00  -2.6017860558674613e-03 -2.5978841546856119e-03 0.0000000000000000e+00  -3.1698146039771482e-03 -3.2037554431568385e-03 0.0000000000000000e+00  -2.8391119059359418e-03 -3.1347124972209120e-03 0.0000000000000000e+00  -2.8391118061777973e-03 -2.6975935374807768e-03 0.0000000000000000e+00  -2.8391361786192135e-03 -2.6697353403159988e-03 0.0000000000000000e+00  -2.8391385016990748e-03 -3.1068271473995122e-03 0.0000000000000000e+00  -2.6564840501111259e-03 -2.8824709976699382e-03 0.0000000000000000e+00  -3.0936096384916443e-03 -2.8824659299835818e-03 0.0000000000000000e+00  -2.6564840501111259e-03 -2.8824709976699382e-03 0.0000000000000000e+00  -2.8391118061777973e-03 -2.6975935374807768e-03 0.0000000000000000e+00  -2.6267580332535964e-03 -2.8824995998479536e-03 0.0000000000000000e+00  -3.0638592721014589e-03 -2.8824906491191813e-03 0.0000000000000000e+00  -2.8391119059359418e-03 -3.1347124972209120e-03 0.0000000000000000e+00  -3.0936096384916443e-03 -2.8824659299835818e-03 0.0000000000000000e+00  -2.6330805113139108e-03 -2.6128937985648573e-03 0.0000000000000000e+00  -3.0580444314239333e-03 -2.9842057158984575e-03 0.0000000000000000e+00  -3.1564416227128265e-03 -2.7729947360059840e-03 0.0000000000000000e+00  -3.1678293673820823e-03 -2.6189335907942672e-03 0.0000000000000000e+00  -3.0229758518054498e-03 -2.5936235622022372e-03 0.0000000000000000e+00  -3.0446498991235377e-03 -2.5958670712253012e-03 0.0000000000000000e+00  -2.5573453914332833e-03 -3.1735131643173672e-03 0.0000000000000000e+00  -2.6824412046804321e-03 -3.2098378103287916e-03 0.0000000000000000e+00  -3.0757094503774595e-03 -2.9197547439648711e-03 0.0000000000000000e+00  -2.7363900231635813e-03 -3.0601785136305398e-03 0.0000000000000000e+00  -2.5602424212650687e-03 -3.1010989556459353e-03 0.0000000000000000e+00  -3.1366101827383351e-03 -2.8397098142815200e-03 0.0000000000000000e+00  -3.1502813044616963e-03 -2.7333247994553128e-03 0.0000000000000000e+00  -2.5665823517531396e-03 -2.7306110019435668e-03 0.0000000000000000e+00  -2.6792576100951402e-03 -2.6008596174902153e-03 0.0000000000000000e+00  -2.5506674969513242e-03 -2.6007585013615745e-03 0.0000000000000000e+00  -3.1592418332700204e-03 -3.0575279866622762e-03 0.0000000000000000e+00  -3.0400014705428374e-03 -3.0830518202347996e-03 0.0000000000000000e+00  -3.0291710354540713e-03 -3.2106222826772416e-03 0.0000000000000000e+00  -2.6913947686989809e-03 -3.0387075613476202e-03 0.0000000000000000e+00  -2.6755976556525510e-03 -2.7187587770505237e-03 0.0000000000000000e+00  -2.5559180033499565e-03 -2.8465427448000338e-03 0.0000000000000000e+00  -2.9290252640947530e-03 -3.2106669937000329e-03 0.0000000000000000e+00  -2.6381162435515850e-03 -3.1595361171867179e-03 0.0000000000000000e+00  -2.5574441060835190e-03 -3.2103120206710386e-03 0.0000000000000000e+00  -2.7082897546438413e-03 -3.1802204382116047e-03 0.0000000000000000e+00  -2.6735645871788097e-03 -3.0546997622160881e-03 0.0000000000000000e+00  -3.1560918563900303e-03 -2.5924827978088694e-03 0.0000000000000000e+00  -3.1376828196084516e-03 -2.7515179340373433e-03 0.0000000000000000e+00  -3.0117497465879449e-03 -2.7160922854819018e-03 0.0000000000000000e+00  -2.5665642188352051e-03 -3.0172816608892688e-03 0.0000000000000000e+00  -3.1634090462788612e-03 -2.6842067193945524e-03 0.0000000000000000e+00  -2.5596210182847355e-03 -3.0475435070023804e-03 0.0000000000000000e+00  -3.1685935574002483e-03 -3.1956638414652899e-03 0.0000000000000000e+00  -2.7613146457310740e-03 -3.0077027644311205e-03 0.0000000000000000e+00  -2.9644560053586804e-03 -2.8021301606785207e-03 0.0000000000000000e+00  -2.9978878178286757e-03 -2.7606997898104576e-03 0.0000000000000000e+00  -2.9978945795482823e-03 -3.0071349483055776e-03 0.0000000000000000e+00  -2.9625481784896521e-03 -2.6091145258597685e-03 0.0000000000000000e+00  -3.1575950635516470e-03 -3.1241339666754873e-03 0.0000000000000000e+00  -3.1584357262706827e-03 -3.1317419837383104e-03 0.0000000000000000e+00  -2.9008256116716869e-03 -3.0790168337298061e-03 0.0000000000000000e+00  -2.5531522982009374e-03 -3.1758386898212421e-03 0.0000000000000000e+00  -2.5528314548431412e-03 -2.6568437502596915e-03 0.0000000000000000e+00  -2.5826621351424041e-03 -2.8824726173677056e-03 0.0000000000000000e+00  -2.6851779531738393e-03 -2.5981427242679359e-03 0.0000000000000000e+00  -3.0704672250288227e-03 -3.1563739042937025e-03 0.0000000000000000e+00  -2.8391160238875079e-03 -3.1953226027107051e-03 0.0000000000000000e+00  -3.1218203871778822e-03 -2.5964744317373925e-03 0.0000000000000000e+00  -2.7613216336409914e-03 -2.8824566363366724e-03 0.0000000000000000e+00  -2.7059445546065864e-03 -2.7404392078696303e-03 0.0000000000000000e+00  -2.8578196606772531e-03 -2.6550410957849519e-03 0.0000000000000000e+00  -2.6028959456644578e-03 -2.6702100866815405e-03 0.0000000000000000e+00  -2.5653111369954521e-03 -2.8184264597469933e-03 0.0000000000000000e+00  -2.7251434992267127e-03 -2.8729334412786419e-03 0.0000000000000000e+00  -2.7740069634631988e-03 -3.1706103751208197e-03 0.0000000000000000e+00  -3.1309734102018556e-03 -3.2115958615137816e-03 0.0000000000000000e+00  -2.9701068810364787e-03 -3.1870829707627258e-03 0.0000000000000000e+00  -2.9187626256317774e-03 -2.6037289063335933e-03 0.0000000000000000e+00  -2.9644605116513046e-03 -2.6393519632348927e-03 0.0000000000000000e+00  -2.8391229983344059e-03 -3.1802329038353671e-03 0.0000000000000000e+00  -2.9073342136786908e-03 -2.7704244925929292e-03 0.0000000000000000e+00  -2.5529136421951104e-03 -2.9667068101424210e-03 0.0000000000000000e+00  -2.9590213965056886e-03 -2.8824904238282313e-03 0.0000000000000000e+00  -3.1267393298315791e-03 -2.6205939690525318e-03 0.0000000000000000e+00  -3.1017763703642541e-03 -2.6230877718074405e-03 0.0000000000000000e+00  -2.5746051251277118e-03 -2.6027874864718819e-03 0.0000000000000000e+00  -2.8391102565819928e-03 -3.0386984188000938e-03 0.0000000000000000e+00  -2.9856393581158638e-03 -3.1006418167964429e-03 0.0000000000000000e+00  -2.6976828922793536e-03 -3.1542106796050785e-03 0.0000000000000000e+00  -2.5678387128436121e-03 -2.6470083159142103e-03 0.0000000000000000e+00  -3.1110811180023860e-03 -3.1850788486369841e-03 0.0000000000000000e+00  -2.7017979929628206e-03 -3.2118708261592455e-03 0.0000000000000000e+00  -2.5992656077806773e-03 -3.1271368742384169e-03 0.0000000000000000e+00  -3.1540895647604390e-03 -2.9173092740876873e-03 0.0000000000000000e+00  -2.5760146731126001e-03 -2.7443011596049215e-03 0.0000000000000000e+00  -3.1207480064022004e-03 -3.0363478983527442e-03 0.0000000000000000e+00  -2.6926160075037382e-03 -2.6233877455148495e-03 0.0000000000000000e+00  -2.6981321107830457e-03 -2.6800141108874347e-03 0.0000000000000000e+00  -2.6249274331605738e-03 -2.9265826390966056e-03 0.0000000000000000e+00  -2.8391063797767696e-03 -2.8021374683778162e-03 0.0000000000000000e+00  -2.7201705644274918e-03 -2.8636371770226761e-03 0.0000000000000000e+00  -3.1674459520534912e-03 -3.0022705143070735e-03 0.0000000000000000e+00  -3.1067389623660392e-03 -3.0209861033162265e-03 0.0000000000000000e+00  -2.8391373636329630e-03 -3.0022745539428869e-03 0.0000000000000000e+00  -3.0843338856337103e-03 -2.7794891528178673e-03 0.0000000000000000e+00  -2.9669933555562834e-03 -3.1818270114301610e-03 0.0000000000000000e+00  -3.1692671018092909e-03 -2.6937761862963678e-03 0.0000000000000000e+00  -2.5519115519637234e-03 -3.1141349152336078e-03 0.0000000000000000e+00  -2.6163579374755518e-03 -3.0667774573512490e-03 0.0000000000000000e+00  -2.6054272873710107e-03 -2.6568528232475781e-03 0.0000000000000000e+00  -2.8391202953444885e-03 -2.6241986784132543e-03 0.0000000000000000e+00  -2.9804105821307782e-03 -3.1694910525347808e-03 0.0000000000000000e+00  -2.6337067406083619e-03 -2.7980097053870059e-03 0.0000000000000000e+00  -2.9868307980658575e-03 -2.9931825071562303e-03 0.0000000000000000e+00  -2.6127203435612010e-03 -3.1844909438784623e-03 0.0000000000000000e+00  -2.6206217948469930e-03 -3.2032546093037685e-03 0.0000000000000000e+00  -2.8391160238875079e-03 -3.1953226027107051e-03 0.0000000000000000e+00  -2.7997358146708159e-03 -3.2119147177584475e-03 0.0000000000000000e+00  -3.1077960582516703e-03 -2.9986724243271034e-03 0.0000000000000000e+00  -3.1694397259703347e-03 -2.8644714731765569e-03 0.0000000000000000e+00  -3.1335016661580362e-03 -3.0396589750377734e-03 0.0000000000000000e+00  -2.6177294627075637e-03 -3.0077001966314198e-03 0.0000000000000000e+00  -3.1511478360440304e-03 -2.6692950146445060e-03 0.0000000000000000e+00  -2.8391450144587653e-03 -2.7657346509360526e-03 0.0000000000000000e+00  -2.9590213965056886e-03 -2.8824904238282313e-03 0.0000000000000000e+00  -2.7224714428461172e-03 -2.8825061886749198e-03 0.0000000000000000e+00  -2.8391373636329630e-03 -3.0022745539428869e-03 0.0000000000000000e+00  -2.8751992990520064e-03 -2.7604361017710818e-03 0.0000000000000000e+00  -2.9616567692741604e-03 -2.6664689340448015e-03 0.0000000000000000e+00  -2.7175321469116880e-03 -2.6486768551100466e-03 0.0000000000000000e+00  -2.6036670989642123e-03 -2.5925678295768695e-03 0.0000000000000000e+00  -2.7196233912383481e-03 -2.5959951835290880e-03 0.0000000000000000e+00  -3.1546506464456819e-03 -3.2118911105699509e-03 0.0000000000000000e+00  -2.8391450144587653e-03 -2.7657346509360526e-03 0.0000000000000000e+00  -2.7224714428461172e-03 -2.8825061886749198e-03 0.0000000000000000e+00  -3.1678807772055617e-03 -3.1451455026740606e-03 0.0000000000000000e+00  -2.5632555156738968e-03 -2.6245392612311877e-03 0.0000000000000000e+00  -2.5711009238171740e-03 -2.7390163827972387e-03 0.0000000000000000e+00  -2.7947911868035232e-03 -2.6069594924067164e-03 0.0000000000000000e+00  -2.9241199967965491e-03 -2.6064438906034308e-03 0.0000000000000000e+00  -3.0005113173195621e-03 -2.8399013412799255e-03 0.0000000000000000e+00  -2.9624648271618357e-03 -2.9256357906171124e-03 0.0000000000000000e+00  -2.8811943981551734e-03 -3.0023537937587602e-03 0.0000000000000000e+00  -2.8391202953444885e-03 -2.6241986784132543e-03 0.0000000000000000e+00  -2.8391270066497631e-03 -2.6091206148814855e-03 0.0000000000000000e+00  -2.9978849445928667e-03 -2.8824654464827924e-03 0.0000000000000000e+00  -2.8391063797767696e-03 -2.8021374683778162e-03 0.0000000000000000e+00  -2.5826621351424041e-03 -2.8824726173677056e-03 0.0000000000000000e+00  -2.7613216336409914e-03 -2.8824566363366724e-03 0.0000000000000000e+00  -2.5665738068609361e-03 -2.8824831695096983e-03 0.0000000000000000e+00  -2.8391229983344059e-03 -3.1802329038353671e-03 0.0000000000000000e+00  -2.8391102565819928e-03 -3.0386984188000938e-03 0.0000000000000000e+00  -2.8391270066497631e-03 -2.6091206148814855e-03 0.0000000000000000e+00  -2.5665738068609361e-03 -2.8824831695096983e-03 0.0000000000000000e+00  -2.9978849445928667e-03 -2.8824654464827924e-03 0.0000000000000000e+00  -3.1537956949465509e-03 -2.8824736152579171e-03 0.0000000000000000e+00  -3.1376935693511725e-03 -2.8824895918391985e-03 0.0000000000000000e+00  -3.1537956949465509e-03 -2.8824736152579171e-03 0.0000000000000000e+00  -3.1376935693511725e-03 -2.8824895918391985e-03 0.0000000000000000e+00  -3.1384845722580903e-03 -3.1769113335923926e-03 0.0000000000000000e+00  -3.0601466415562648e-03 -2.8595905850604714e-03 0.0000000000000000e+00  -3.0922516921547019e-03 -2.7673471246100010e-03 0.0000000000000000e+00  -2.9619064403875622e-03 -3.0051434807620552e-03 0.0000000000000000e+00  -3.1356471810512743e-03 -2.6339022336903410e-03 0.0000000000000000e+00  -3.1634554801941968e-03 -2.5928737482863464e-03 0.0000000000000000e+00  -3.1604567438721816e-03 -2.6308409868092218e-03 0.0000000000000000e+00  -2.7271439226414884e-03 -2.6446379638942396e-03 0.0000000000000000e+00  -2.5505658435659101e-03 -2.7681746591922251e-03 0.0000000000000000e+00  -3.1657986053778746e-03 -2.6196236777141012e-03 0.0000000000000000e+00  -2.9872272210977949e-03 -3.1859587990558419e-03 0.0000000000000000e+00  -2.7025533689224819e-03 -3.1996283279948977e-03 0.0000000000000000e+00  -2.8149846257827359e-03 -3.0989610416297764e-03 0.0000000000000000e+00  -3.1494839184423623e-03 -3.1894406888372524e-03 0.0000000000000000e+00  -2.5504787677705352e-03 -2.5961386922560984e-03 0.0000000000000000e+00  -2.5544688311891035e-03 -3.1796664926365082e-03 0.0000000000000000e+00  -2.5529084288651990e-03 -3.1021184538479441e-03 0.0000000000000000e+00  -3.0705583233486154e-03 -3.1854525909638578e-03 0.0000000000000000e+00  -2.6198197638334342e-03 -3.2026547950982052e-03 0.0000000000000000e+00  -3.0580161284794352e-03 -2.5999782802018185e-03 0.0000000000000000e+00  -2.5845858031932102e-03 -3.1225656956818159e-03 0.0000000000000000e+00  -2.5542044143078220e-03 -3.2091480426733221e-03 0.0000000000000000e+00  -2.9498748299961837e-03 -2.5926505608419256e-03 0.0000000000000000e+00  -3.1650079489549217e-03 -3.2104958887657952e-03 0.0000000000000000e+00  -3.0577099400105985e-03 -2.6307581471422033e-03 0.0000000000000000e+00  -3.0793271148768925e-03 -3.0973860177286720e-03 0.0000000000000000e+00  -3.0230371726539516e-03 -2.6043498277953953e-03 0.0000000000000000e+00  -3.0201918335318878e-03 -2.6216541375943163e-03 0.0000000000000000e+00  -2.6179627249224122e-03 -2.6672213175623575e-03 0.0000000000000000e+00  -2.5955586772933251e-03 -3.2108496963428410e-03 0.0000000000000000e+00  -2.8210433167047142e-03 -2.8322701503556359e-03 0.0000000000000000e+00  -3.1169935737111274e-03 -3.0956705643719732e-03 0.0000000000000000e+00  -2.9448595609446494e-03 -3.0972504452451777e-03 0.0000000000000000e+00  -3.0990007156425268e-03 -2.6857010610757239e-03 0.0000000000000000e+00  -3.1575552530151373e-03 -3.1915460972309312e-03 0.0000000000000000e+00  -2.9448531147152263e-03 -2.7095718165469841e-03 0.0000000000000000e+00  -2.7408323982398581e-03 -2.7602091982882530e-03 0.0000000000000000e+00  -3.1612073381645572e-03 -3.0166690230343548e-03 0.0000000000000000e+00  -2.5573145257950358e-03 -3.1699306933370493e-03 0.0000000000000000e+00  -3.0510656175951672e-03 -3.0836963276197299e-03 0.0000000000000000e+00  -3.0497893554333635e-03 -3.2042898194095662e-03 0.0000000000000000e+00  -3.1631666097485488e-03 -2.7719112742737397e-03 0.0000000000000000e+00  -3.1696215901831299e-03 -2.7813400944525163e-03 0.0000000000000000e+00  -2.8077758217767779e-03 -3.1240380185478928e-03 0.0000000000000000e+00  -2.6678022338195496e-03 -2.9997920311995701e-03 0.0000000000000000e+00  -2.7805003740039437e-03 -2.9666089707161389e-03 0.0000000000000000e+00  -2.5733307232157832e-03 -2.6028709407895589e-03 0.0000000000000000e+00  -3.1269814025249175e-03 -2.7441350477087705e-03 0.0000000000000000e+00  -3.1699761864873522e-03 -3.1642028094190301e-03 0.0000000000000000e+00  -2.8157051476248138e-03 -2.7247721318172831e-03 0.0000000000000000e+00  -2.8758844179063697e-03 -3.1875140382139782e-03 0.0000000000000000e+00  -3.1464332205517129e-03 -2.9427273369044093e-03 0.0000000000000000e+00  -2.9363555800139048e-03 -3.2049115835615181e-03 0.0000000000000000e+00  -2.9267895745702273e-03 -3.2093768897462202e-03 0.0000000000000000e+00  -2.5610052994679720e-03 -2.5936311921883662e-03 0.0000000000000000e+00  -2.7130447314306842e-03 -3.1357031692520279e-03 0.0000000000000000e+00  -2.5619596424548982e-03 -2.6568531135555758e-03 0.0000000000000000e+00  -2.5915073758636708e-03 -2.8031860104616581e-03 0.0000000000000000e+00  -2.6855339647068742e-03 -3.1820691518425316e-03 0.0000000000000000e+00  -3.1144058298310218e-03 -2.5943903207328264e-03 0.0000000000000000e+00  -2.8945805721613156e-03 -3.1561821066200869e-03 0.0000000000000000e+00  -2.6299392392906324e-03 -2.7830413478675815e-03 0.0000000000000000e+00  -3.0375829774798801e-03 -3.2032915521305887e-03 0.0000000000000000e+00  -2.7470647019241594e-03 -2.9616663747912037e-03 0.0000000000000000e+00  -2.7529739685728375e-03 -3.1001127423418116e-03 0.0000000000000000e+00  -2.6188051976579856e-03 -3.0226641228443905e-03 0.0000000000000000e+00  -2.7155001944235472e-03 -2.5949311379070920e-03 0.0000000000000000e+00  -2.5729447649904830e-03 -3.0239458333585606e-03 0.0000000000000000e+00  -2.5875762947697952e-03 -2.7432385011405208e-03 0.0000000000000000e+00  -3.1218317348283195e-03 -2.8538158333387131e-03 0.0000000000000000e+00  -3.0343351621638583e-03 -2.6426407807700284e-03 0.0000000000000000e+00  -2.9420174478357666e-03 -2.6580134362135170e-03 0.0000000000000000e+00  -3.0195923532564360e-03 -3.2098002710264505e-03 0.0000000000000000e+00  -2.8781038966836443e-03 -3.2070258915114797e-03 0.0000000000000000e+00  -2.7625272234750777e-03 -2.5951870275070540e-03 0.0000000000000000e+00  -2.6124717200784677e