<?xml version="1.0"?>
<VTKFile type="UnstructuredGrid"  version="0.1"  >
<UnstructuredGrid>
<Piece  NumberOfPoints="1380" NumberOfCells="2630">
<Points>
<DataArray  type="Float64"  NumberOfComponents="3"  format="ascii">-1 -1 0  1 -1 0  1 1 0  -1 1 0  0 -1 0  1 0 0  0 1 0  -1 0 0  0 0 0  -1 -0.5 0  -0.5 -1 0  -0.5 1 0  -1 0.5 0  1 -0.5 0  0.5 -1 0  1 0.5 0  0.5 1 0  0.4166666666666666 -0.4166666666666667 0  -0.4166666666666667 0.4166666666666667 0  -0.25 -0.5 0  0.5 0.25 0  -0.4861111111111112 -0.06944444444444445 0  0.0732758620689655 0.507183908045977 0  -0.625 -0.625 0  0.625 0.625 0  0.7380952380952381 -0.25 0  -0.7099116161616161 0.2105429292929293 0  -0.25 0.7380952380952381 0  0.105392156862745 -0.6348039215686275 0  0.6770833333333334 -0.6770833333333333 0  -0.6770833333333334 0.6770833333333334 0  0.3472222222222222 -0.06944444444444446 0  -0.7264957264957265 -0.3044871794871795 0  0.3141940982507127 0.7297313660835709 0  0.02049587951122483 -0.3227479397556124 0  -0.2690972222222223 0.1475694444444444 0  0.3859500089908372 -0.7274430156831472 0  -0.2228477945123298 -0.1761765495248019 0  0.2182539682539683 0.1884920634920635 0  0.75 0.375 0  -0.145442219440968 -0.7602211097204841 0  0.7088913690476191 0.0427827380952381 0  -0.75 -1 0  -1 -0.75 0  1 0.75 0  0.75 1 0  -0.7439982703698937 -0.04614153195464455 0  -0.4609235096577606 -0.3356498099556895 0  0.4063134471431929 0.4895621842856023 0  0.25 -1 0  -0.25 -1 0  -0.75 1 0  0.75 -1 0  -1 -0.25 0  -1 0.25 0  1 -0.25 0  -0.25 1 0  1 -0.75 0  -1 0.75 0  0.25 1 0  1 0.25 0  -0.4041423272138783 -0.7597141090712928 0  0.06500839607911253 0.7578103030529481 0  -0.1572801182352047 0.3838997021864289 0  -0.6528005242053915 0.4409494757946086 0  -0.4930160984848485 0.1544744318181818 0  -0.4732142857142858 0.7752976190476191 0  0.6398809523809523 -0.4538690476190476 0  0.5166054117396399 -0.2161233620965164 0  -0.002273787244753427 0.2232363985975174 0  0.1500564496765022 -0.1524955293952667 0  0.2016720420046758 -0.4410343282803009 0  -0.08495178036419618 0.6274139771124571 0  -0.8367311471133162 0.3642591720794645 0  -0.8333333333333334 -0.625 0  -0.594323836800685 -0.8231079456002283 0  -0.4466957714776065 -0.5349126855671806 0  0.8125 0.5625 0  0.78125 0.78125 0  0.5091392650016769 0.7947130883338923 0  0.125 -0.8382681931833136 0  -0.8184523809523809 -0.8184523809523809 0  -0.07781530426104531 -0.5819319697006881 0  0.5085055196703295 0.04967610411902112 0  0.2918471072074933 -0.276017202318847 0  0.5120763537765269 -0.5898771553229597 0  0.625 -0.8585349462365591 0  0.8158532234335381 -0.8158532234335381 0  -0.5198088446315396 0.5739411553684605 0  -0.8585349462365591 0.625 0  -0.8150493805516597 0.8156205699829586 0  0.8585349462365591 -0.625 0  -0.2688268348649726 0.5439331383603209 0  0.8242100426758139 -0.4436043596336612 0  0.5833756314287952 0.4479378157143976 0  0.8690476190476191 -0.125 0  -0.125 0.8690476190476191 0  -0.8692745600729823 0.125 0  0.8696725120759167 0.125 0  -0.625 0.8711516477451908 0  0.2339522463269718 0.3879558377955778 0  0.2453709502295031 0.5655822922838026 0  0.1730610651637797 0.02021709580868947 0  0.3245402594056757 -0.5644672020485209 0  -0.7291666666666666 -0.4816595441595442 0  -1 -0.375 0  -0.5811140848639904 -0.2127276307675001 0  0.673332592838314 0.2158348143233718 0  0.375 1 0  -0.5714768890989919 0.2985103444040069 0  -1 -0.125 0  -0.8453692574786325 -0.1875 0  -0.3144549134065865 -0.02408675326008025 0  -0.2898414972096258 -0.3336092734780093 0  -0.1075052092206287 -0.4224330421314983 0  -0.05043970703604117 -0.1652278959397459 0  0.6459672950297897 -0.1113415301525317 0  0.4645210271029513 0.6398480556579343 0  0.3512863754411909 0.0937979496253573 0  -0.6063160985568274 0.03891469652249891 0  -0.3428819444444445 0.8690476190476191 0  0.625 1 0  -0.1602164796159982 0.02697860906625157 0  0.04648110064133829 -0.4808416424239687 0  1 0.875 0  -0.3836102479201657 0.6484936449177356 0  -0.3776011723096096 0.263078478984336 0  -0.6024978259969829 -0.3949628096211138 0  0.125 1 0  0.2010781308272777 0.8456221018461906 0  0.2822509696388829 -0.845902544691141 0  -0.3285533674953515 -0.6289773550938936 0  0.3461306793221754 0.278777492464833 0  0.4737475672408696 -0.8508448959534423 0  0.2384632828836344 -0.7029523187242811 0  -0.004777287059791593 0.3759269695907358 0  -0.8499735021850066 -0.3912320205328522 0  0.1222536293721587 0.2963971539625205 0  -0.3769456520999688 -0.203572526805711 0  -0.2749617205755651 -0.8464290792698902 0  0.004805888512766143 -0.747174355248311 0  -0.125 -1 0  -0.06001061822252458 -0.8724007765244854 0  0.875 0.4375 0  0.854421179608893 0.271342359217786 0  0.875 1 0  -0.1499861095763589 0.2358309656934888 0  0.3381943639137225 0.8663061796405532 0  -0.7853090110442228 0.4998412775277108 0  0.7398165998560814 -0.5535192694951373 0  0.1580042122341573 -0.3100246140259917 0  -0.7291666666666667 -0.7142857142857142 0  -0.375 -1 0  0.6483368386154684 0.8514905990110488 0  -0.1295370103291928 -0.2826118305021242 0  0.07458201853700455 0.1123894386563915 0  0.6146465857036327 -0.3161203659316075 0  0.5551898493894731 -0.740296118159085 0  0.375 -1 0  0.482702798370208 -0.084133350091034 0  0.87890625 0.68359375 0  -0.05917195534525846 0.4971092425697621 0  0.1260710309213975 0.6343750312956699 0  0.8690476190476191 -0.3077066815262848 0  -0.2912010232560567 0.3668168386732139 0  -0.875 1 0  -1 0.875 0  1 -0.875 0  0.875 -1 0  -0.8689564281364567 -0.006189266075306407 0  -0.7449425635110547 0.08458938160051771 0  -0.7150266761936593 -0.1739444581417552 0  -0.5260034831318311 -0.711099823962112 0  -0.4724626808827322 -0.871722230709409 0  0.4734436795977052 0.377714794132168 0  -0.875 -1 0  -1 -0.875 0  0.6927189078571988 0.5156567235715964 0  -0.3742497615796874 -0.4296005251260107 0  -0.1969436423297711 -0.6387157229772615 0  -0.6179496409766825 -0.08933356056510935 0  -0.424405057115988 0.04452428810878029 0  -0.08479048335844169 0.1279607007132633 0  0.003830300099055113 0.8712085230656206 0  0.8748778838820267 -1.379218479898026e-05 0  -0.375 1 0  -0.625 1 0  1 0.125 0  -0.125 1 0  1 -0.375 0  1 -0.125 0  1 -0.625 0  0.625 -1 0  0.125 -1 0  -0.625 -1 0  -1 -0.625 0  -1 0.125 0  -1 0.375 0  -1 0.625 0  1 0.375 0  1 0.625 0  0.6325660748712082 0.3335187599557389 0  -0.06420945895056573 0.7549874027425891 0  -0.8769015540914771 0.2478802253893416 0  0.871875 0.871875 0  -0.6868091492840067 0.3270978624973681 0  -0.5363597469565949 0.412994850055505 0  -0.6803734992638302 0.5574295000651103 0  -0.7076253581162534 -0.8803439094224437 0  -0.8778089002295137 -0.5106896447504627 0  -0.3860184984222981 0.530566778071246 0  0.6109900617121508 0.1128453077697081 0  0.3896945134930274 -0.1915382873255086 0  0.7605656944697778 -0.06822134873122943 0  0.3576151269893478 0.5948388411612135 0  -0.5689902680792265 -0.5143596830118065 0  0.6262446286847614 -0.5735657901943212 0  0.2030558252325225 -0.5625263842513452 0  0.6123273142928579 0.7407533260723429 0  0.4016460890123554 -0.3042863223111857 0  -0.59039693199147 0.7578418819188018 0  0.7276932493917544 -0.3705808024528924 0  0.5222536818742854 -0.4713886230400014 0  -0.5101986527137737 0.8848365765607674 0  0.510560172809238 0.5356013299918891 0  -0.3603569195756083 0.75823710606415 0  0.1967279277813232 0.728226870058472 0  -0.6086880986371127 0.1545624071548516 0  -0.38105366729386 0.1511189987807864 0  -0.2944659463671584 -0.7359061804869591 0  0.5060729154966499 -0.3475227845833823 0  -0.09281616240412746 -0.06197858250969457 0  0.7649739583333334 0.6673177083333334 0  0.7628906249999999 0.890234375 0  -0.2666864184909611 0.2585504071132311 0  0.3635064892129658 0.3878003602709461 0  -0.2339409722222222 0.8901937905844155 0  -0.1718792125974916 -0.8957733325456778 0  0.1001768566329531 0.4023510017391879 0  0.3120260172693757 -0.4540546875576884 0  0.7804062804433681 0.1896628610854537 0  0.4087715451998049 0.187961780041608 0  -0.1584963477271457 0.5451611892421655 0  -0.8926817849258324 0.463022006336401 0  0.2338091473445219 -0.07576267331277289 0  0.08171112182813692 -0.2349087687359925 0  0.04635385178956847 -0.1044635073718474 0  -0.4377391632114205 -0.6448874471423088 0  -0.1907678351227189 0.6480215912813945 0  0.300605946475244 0.4741444604171038 0  -0.2145033720757486 -0.06751709909419711 0  0.6069191921170397 -0.005492331448357812 0  0.0214718770761248 0.6032397936031719 0  0.5476675683364878 0.8992752415326501 0  0.4387475014316537 0.9093708953002239 0  -0.4932997685306436 -0.4381009159993523 0  0.2515197695339056 -0.1791673369138964 0  -0.7291666666666667 -0.6088789682539681 0  -0.9166666666666667 -0.6875 0  0.620579540363709 -0.2122431523583302 0  -0.484950136419973 0.6719440339397442 0  0.2857044415400258 0.0137589173127316 0  -0.8945708364098356 -0.288306105327986 0  0.4043102720140535 0.7842914560451557 0  0.04123256238752064 -0.9026968245801402 0  0.2003676884403109 -0.9091888601740487 0  0.1068775558538842 -0.7373377130403223 0  -0.4804566783514427 -0.1763307203045643 0  0.108286342087769 -0.3993789328997278 0  -0.191883080105361 -0.3640821726430649 0  -0.07025064492006244 0.2984876656890053 0  -0.7039324641409584 0.788312126296613 0  -0.7311286585775438 0.8932502354831682 0  0.5171409396884947 0.1503852691889257 0  0.4229392823658633 -0.003216522184234835 0  -0.5621736087218259 -0.919558629836806 0  -0.626474064879544 -0.7266572613636506 0  0.2446828746617422 0.2867616783302419 0  0.1759429608742923 0.4776611759306416 0  -0.3468240303741654 -0.5260416435617549 0  -0.7465808808425306 0.4069574477998361 0  -0.7819962170660292 0.2802441065650652 0  -0.3742623214119594 -0.8547800509641984 0  0.1014498009713561 0.8506721983266377 0  0.4285217620918213 -0.5230190595570253 0  0.4091738370487775 -0.6256346204225141 0  0.78125 0.46875 0  0.90625 0.53125 0  -0.4791801348852565 0.2553992655702126 0  0.7843318610782772 -0.7086046956885941 0  0.8909728264971901 -0.7355183796514634 0  0.7041908166528879 -0.7830649143180282 0  0.7311821352
[...]
<PointData  Vectors="f_22"> 
<DataArray  type="Float64"  Name="f_22"  NumberOfComponents="3" format="ascii">-2.6706645674497683e-03 -2.7302070510987226e-03 0.0000000000000000e+00  -2.6706645674497683e-03 -2.7302070510987226e-03 0.0000000000000000e+00  -2.6706645674497683e-03 -2.7302070510987226e-03 0.0000000000000000e+00  -2.6706645674497683e-03 -2.7302070510987226e-03 0.0000000000000000e+00  -2.6673818210838042e-03 -3.0740150435055336e-03 0.0000000000000000e+00  -3.0497134654691857e-03 -2.7259490482752372e-03 0.0000000000000000e+00  -2.6673818210838042e-03 -3.0740150435055336e-03 0.0000000000000000e+00  -3.0497134654691857e-03 -2.7259490482752372e-03 0.0000000000000000e+00  -3.0528434184990010e-03 -3.0782269033444963e-03 0.0000000000000000e+00  1.5293377397567229e-03 -2.7278389665867575e-03 0.0000000000000000e+00  -2.6689165698760547e-03 1.4868299402229811e-03 0.0000000000000000e+00  -2.6689165698760547e-03 1.4868299402229811e-03 0.0000000000000000e+00  -7.2497541144767707e-03 -2.7277433307639452e-03 0.0000000000000000e+00  1.5293377397567229e-03 -2.7278389665867575e-03 0.0000000000000000e+00  -2.6687388211859039e-03 -7.2912407006642298e-03 0.0000000000000000e+00  -7.2497541144767707e-03 -2.7277433307639452e-03 0.0000000000000000e+00  -2.6687388211859039e-03 -7.2912407006642298e-03 0.0000000000000000e+00  1.3319427106049681e-03 -7.1854542019042251e-03 0.0000000000000000e+00  -7.1478300692890111e-03 1.2934929282290507e-03 0.0000000000000000e+00  1.5278036774199796e-03 7.7240702322716367e-05 0.0000000000000000e+00  -6.1006011008860146e-03 -7.2922844712074875e-03 0.0000000000000000e+00  -2.0973418099679382e-03 1.4746587320701387e-03 0.0000000000000000e+00  -7.2446600659814694e-03 -4.0736252266894554e-03 0.0000000000000000e+00  1.2661610132952933e-03 1.2175396447017385e-03 0.0000000000000000e+00  -6.8443628599955597e-03 -6.8920831152067836e-03 0.0000000000000000e+00  1.1015931984112638e-04 -5.9989720337739272e-03 0.0000000000000000e+00  -5.7057860734667501e-03 6.7509985545737027e-04 0.0000000000000000e+00  -5.9457488984526368e-03 7.9919840707413887e-05 0.0000000000000000e+00  1.2213004499310590e-03 -4.4924021968572175e-03 0.0000000000000000e+00  9.6946797758404107e-04 -6.5364587556082775e-03 0.0000000000000000e+00  -6.4854742250944359e-03 9.1756053161196299e-04 0.0000000000000000e+00  -2.0973472708496208e-03 -6.8763477125278619e-03 0.0000000000000000e+00  6.1629865521706001e-04 5.3510109086557782e-04 0.0000000000000000e+00  -6.0297376956268542e-03 -6.6606378824461947e-03 0.0000000000000000e+00  7.6447814763039800e-04 -3.3593757871195331e-03 0.0000000000000000e+00  -4.9944464988320950e-03 2.6559062135475916e-04 0.0000000000000000e+00  5.8297355628038436e-04 -7.0720715654049573e-03 0.0000000000000000e+00  -7.1713196985152524e-04 -2.0927922929817725e-04 0.0000000000000000e+00  -5.4705573620823494e-03 -5.8178444828963461e-03 0.0000000000000000e+00  -6.9896342638563992e-03 -5.8831845015952337e-03 0.0000000000000000e+00  2.8206354014982519e-04 -1.1212126328413253e-03 0.0000000000000000e+00  -3.6371389351378164e-03 -6.2721007755492759e-03 0.0000000000000000e+00  -2.6700132915007573e-03 3.2271063091361869e-04 0.0000000000000000e+00  3.7748429557624721e-04 -2.7294271808121317e-03 0.0000000000000000e+00  -5.8299122964176912e-03 -2.7293044738763220e-03 0.0000000000000000e+00  -2.6700244722334936e-03 -5.8838721939858604e-03 0.0000000000000000e+00  -2.4143683227851988e-03 3.8128522070817855e-04 0.0000000000000000e+00  8.6100268054301661e-04 1.4310109893381337e-03 0.0000000000000000e+00  -7.2555579217156163e-03 -7.1544686085294141e-03 0.0000000000000000e+00  -2.6677524713955305e-03 -6.1273759069626725e-03 0.0000000000000000e+00  -2.6677786011728814e-03 7.9752858556881952e-05 0.0000000000000000e+00  -2.6700132915007573e-03 3.2271063091361869e-04 0.0000000000000000e+00  -2.6700244722334936e-03 -5.8838721939858604e-03 0.0000000000000000e+00  1.0974316643145599e-04 -2.7265407203256606e-03 0.0000000000000000e+00  -6.0980720154513003e-03 -2.7264513831414820e-03 0.0000000000000000e+00  1.0974316643145599e-04 -2.7265407203256606e-03 0.0000000000000000e+00  -2.6677786011728814e-03 7.9752858556881952e-05 0.0000000000000000e+00  3.7748429557624721e-04 -2.7294271808121317e-03 0.0000000000000000e+00  -5.8299122964176912e-03 -2.7293044738763220e-03 0.0000000000000000e+00  -2.6677524713955305e-03 -6.1273759069626725e-03 0.0000000000000000e+00  -6.0980720154513003e-03 -2.7264513831414820e-03 0.0000000000000000e+00  2.8538263051833398e-04 1.2371581666481121e-03 0.0000000000000000e+00  -5.7475402642826381e-03 -3.9616098938880457e-03 0.0000000000000000e+00  -7.0287924873435360e-03 -9.7410492885326519e-04 0.0000000000000000e+00  -7.2078171995280781e-03 1.0728928423508878e-03 0.0000000000000000e+00  -5.0762420254479206e-03 1.4826469009922493e-03 0.0000000000000000e+00  -5.5603714190475039e-03 1.4577715275262428e-03 0.0000000000000000e+00  1.4575835879168744e-03 -6.7982138277852839e-03 0.0000000000000000e+00  -2.5133363154223822e-04 -7.2750138555347579e-03 0.0000000000000000e+00  -5.8396876111989158e-03 -3.0466164626256021e-03 0.0000000000000000e+00  -1.0073652839904944e-03 -5.0519370834264075e-03 0.0000000000000000e+00  1.4199032565736594e-03 -5.6405596022988591e-03 0.0000000000000000e+00  -6.8269541654956594e-03 -1.9115471121405028e-03 0.0000000000000000e+00  -6.9342583243553520e-03 -5.9481918693835207e-04 0.0000000000000000e+00  1.2667201138340158e-03 -5.5856049555402538e-04 0.0000000000000000e+00  -3.8379638312345695e-04 1.3449118242176196e-03 0.0000000000000000e+00  1.5217941399286452e-03 1.3949285949857544e-03 0.0000000000000000e+00  -7.1294995713392052e-03 -5.1968115880457848e-03 0.0000000000000000e+00  -5.4988245240349390e-03 -5.5536406346927622e-03 0.0000000000000000e+00  -5.3474325830376581e-03 -7.2853754304347913e-03 0.0000000000000000e+00  -5.5582728517745419e-04 -4.7408144938801775e-03 0.0000000000000000e+00  -3.3121111842873501e-04 -3.8814878289486184e-04 0.0000000000000000e+00  1.4331993822514304e-03 -2.0087294176882012e-03 0.0000000000000000e+00  -3.7318072014954503e-03 -7.2851364869689619e-03 0.0000000000000000e+00  3.6348777601201052e-04 -6.4916009799841235e-03 0.0000000000000000e+00  1.4108186561880163e-03 -7.2798564710878826e-03 0.0000000000000000e+00  -7.9987655020868551e-04 -6.8904080915135691e-03 0.0000000000000000e+00  -3.0049646313792594e-04 -5.1568866629445424e-03 0.0000000000000000e+00  -7.0856016152225304e-03 1.4906448390489663e-03 0.0000000000000000e+00  -6.8420435365838302e-03 -8.5778072097327971e-04 0.0000000000000000e+00  -5.1030999724658238e-03 -3.4859269982105923e-04 0.0000000000000000e+00  1.2685765712382689e-03 -4.6315742826506133e-03 0.0000000000000000e+00  -7.1798620173366403e-03 2.6481398148092222e-04 0.0000000000000000e+00  1.4281995681447641e-03 -5.0547902616550422e-03 0.0000000000000000e+00  -7.2240875325324068e-03 -7.0977184281226131e-03 0.0000000000000000e+00  -1.3552605760197409e-03 -4.4954971373206039e-03 0.0000000000000000e+00  -4.4383613183713432e-03 -1.3813462398169747e-03 0.0000000000000000e+00  -4.7149093641391413e-03 -9.8810763045624733e-04 0.0000000000000000e+00  -4.7154897367090607e-03 -4.4880617962796115e-03 0.0000000000000000e+00  -4.4125117758463134e-03 1.2191374938244270e-03 0.0000000000000000e+00  -7.0481320507459842e-03 -5.9760046348794390e-03 0.0000000000000000e+00  -7.1188888437184877e-03 -6.0860055543019301e-03 0.0000000000000000e+00  -3.3311323714547742e-03 -5.3235338504945984e-03 0.0000000000000000e+00  1.4799686493971093e-03 -6.7309615958231319e-03 0.0000000000000000e+00  1.5094967935821144e-03 5.1111192364733664e-04 0.0000000000000000e+00  1.1227281019885842e-03 -2.7270772179219340e-03 0.0000000000000000e+00  -2.9110246046188748e-04 1.3884119320649478e-03 0.0000000000000000e+00  -5.7630350162337545e-03 -6.5661741643497267e-03 0.0000000000000000e+00  -2.6682015048610399e-03 -7.0230066544663483e-03 0.0000000000000000e+00  -6.5107494467957173e-03 1.4169847778858209e-03 0.0000000000000000e+00  -1.3554189806943807e-03 -2.7259820975298892e-03 0.0000000000000000e+00  -5.7964125158577726e-04 -6.9787541395415550e-04 0.0000000000000000e+00  -2.7201283350453006e-03 6.6495910647481108e-04 0.0000000000000000e+00  8.4582356592172755e-04 4.5592252112313845e-04 0.0000000000000000e+00  1.3524798656017046e-03 -1.6132264664080484e-03 0.0000000000000000e+00  -8.5017000580760193e-04 -2.3833150719931567e-03 0.0000000000000000e+00  -1.5343038393715914e-03 -6.7591278850871418e-03 0.0000000000000000e+00  -6.7532159580611113e-03 -7.2846129449302367e-03 0.0000000000000000e+00  -4.3192790496729781e-03 -6.9005653981388465e-03 0.0000000000000000e+00  -3.5847027633843591e-03 1.3022575463159779e-03 0.0000000000000000e+00  -4.4384290225901899e-03 8.8189361472243498e-04 0.0000000000000000e+00  -2.6693028494694385e-03 -6.8912354387407936e-03 0.0000000000000000e+00  -3.4235999645041114e-03 -9.3936701018636692e-04 0.0000000000000000e+00  1.5100336366331941e-03 -3.7131459342748959e-03 0.0000000000000000e+00  -4.3647583151245626e-03 -2.7297953497382645e-03 0.0000000000000000e+00  -6.6923662042115495e-03 1.1359603935163813e-03 0.0000000000000000e+00  -6.2174933013373476e-03 1.1015257601748045e-03 0.0000000000000000e+00  1.2289174720556521e-03 1.3150576871255092e-03 0.0000000000000000e+00  -2.6674997658951965e-03 -4.7406124590733800e-03 0.0000000000000000e+00  -4.7368904156014227e-03 -5.6333240606790593e-03 0.0000000000000000e+00  -6.4624053963023944e-04 -6.4121176432230835e-03 0.0000000000000000e+00  1.2477563919746644e-03 7.7543751753029642e-04 0.0000000000000000e+00  -6.3558611571534569e-03 -6.8709002626043498e-03 0.0000000000000000e+00  -7.0586057913921477e-04 -7.2897792515768112e-03 0.0000000000000000e+00  7.8266465553551289e-04 -6.0170728466220451e-03 0.0000000000000000e+00  -6.9936537760677429e-03 -3.0112754539474546e-03 0.0000000000000000e+00  1.2111510609084924e-03 -7.5444122683144643e-04 0.0000000000000000e+00  -6.4975248369391128e-03 -4.7099353572642383e-03 0.0000000000000000e+00  -3.9541291578152851e-04 1.0958679628396268e-03 0.0000000000000000e+00  -6.5436402727311372e-04 3.2255129011238997e-04 0.0000000000000000e+00  4.0612461385845311e-04 -3.1410090417134167e-03 0.0000000000000000e+00  -2.6674464406809995e-03 -1.3814091140494751e-03 0.0000000000000000e+00  -9.7007186147967902e-04 -2.2486814011287606e-03 0.0000000000000000e+00  -7.2031561114844411e-03 -4.4211366718715324e-03 0.0000000000000000e+00  -6.2904999362423039e-03 -4.6833152478404083e-03 0.0000000000000000e+00  -2.6704050401860145e-03 -4.4226796255664707e-03 0.0000000000000000e+00  -5.9643931850098192e-03 -1.0658957423688566e-03 0.0000000000000000e+00  -4.4756322544375294e-03 -6.8206789388181406e-03 0.0000000000000000e+00  -7.2485246946776358e-03 -2.4035139654256004e-05 0.0000000000000000e+00  1.5007064940185425e-03 -5.9828811618462836e-03 0.0000000000000000e+00  6.6287688772913246e-04 -5.1462258387931998e-03 0.0000000000000000e+00  6.8871689993666785e-04 5.1041191275670334e-04 0.0000000000000000e+00  -2.6682965229665023e-03 1.0869217334913894e-03 0.0000000000000000e+00  -4.6652084017207423e-03 -6.7463691247828250e-03 0.0000000000000000e+00  4.2275819108941547e-04 -1.3265241081693298e-03 0.0000000000000000e+00  -4.5590204798102536e-03 -4.0924668767458264e-03 0.0000000000000000e+00  7.1429326342128800e-04 -6.9463275391190241e-03 0.0000000000000000e+00  4.6939973789158178e-04 -7.1943708663071001e-03 0.0000000000000000e+00  -2.6682015048610399e-03 -7.0230066544663483e-03 0.0000000000000000e+00  -1.8976247058224073e-03 -7.2938650812953655e-03 0.0000000000000000e+00  -6.4367140737747203e-03 -4.3716620272870087e-03 0.0000000000000000e+00  -7.2508301520981143e-03 -2.2619977233980775e-03 0.0000000000000000e+00  -6.7860429335580980e-03 -4.7559023606431250e-03 0.0000000000000000e+00  6.4538826834021560e-04 -4.4956523355194249e-03 0.0000000000000000e+00  -6.9477623390008297e-03 4.7023288940555691e-04 0.0000000000000000e+00  -2.6705069544043125e-03 -1.0638526177162238e-03 0.0000000000000000e+00  -4.3647583151245626e-03 -2.7297953497382645e-03 0.0000000000000000e+00  -1.0054304377115967e-03 -2.7300052435023587e-03 0.0000000000000000e+00  -2.6704050401860145e-03 -4.4226796255664707e-03 0.0000000000000000e+00  -2.9645410934624554e-03 -9.8450316138120903e-04 0.0000000000000000e+00  -4.1962325151114095e-03 3.7311855204584738e-04 0.0000000000000000e+00  -7.4232767954096526e-04 6.3204415129469694e-04 0.0000000000000000e+00  7.1471070787635597e-04 1.4849875979374262e-03 0.0000000000000000e+00  -9.6398699631025230e-04 1.4549266323383705e-03 0.0000000000000000e+00  -7.0033013104096641e-03 -7.2919578539812858e-03 0.0000000000000000e+00  -2.6705069544043125e-03 -1.0638526177162238e-03 0.0000000000000000e+00  -1.0054304377115967e-03 -2.7300052435023587e-03 0.0000000000000000e+00  -7.2367263076470309e-03 -6.4132867871718223e-03 0.0000000000000000e+00  1.3785058522791929e-03 1.0802751283024111e-03 0.0000000000000000e+00  1.1991056591094294e-03 -4.9849002811599942e-04 0.0000000000000000e+00  -1.8280736737178492e-03 1.2522568883109977e-03 0.0000000000000000e+00  -3.6617428527231941e-03 1.3224198350713283e-03 0.0000000000000000e+00  -4.7549774777813731e-03 -1.9165371886796063e-03 0.0000000000000000e+00  -4.4106543191224029e-03 -3.1270783808624455e-03 0.0000000000000000e+00  -3.0496396973387946e-03 -4.4204638844075094e-03 0.0000000000000000e+00  -2.6682965229665023e-03 1.0869217334913894e-03 0.0000000000000000e+00  -2.6693969388265439e-03 1.2184404194747693e-03 0.0000000000000000e+00  -4.7150213881828875e-03 -2.7261340619912870e-03 0.0000000000000000e+00  -2.6674464406809995e-03 -1.3814091140494751e-03 0.0000000000000000e+00  1.1227281019885842e-03 -2.7270772179219340e-03 0.0000000000000000e+00  -1.3554189806943807e-03 -2.7259820975298892e-03 0.0000000000000000e+00  1.2675935596511601e-03 -2.7285583269849004e-03 0.0000000000000000e+00  -2.6693028494694385e-03 -6.8912354387407936e-03 0.0000000000000000e+00  -2.6674997658951965e-03 -4.7406124590733800e-03 0.0000000000000000e+00  -2.6693969388265439e-03 1.2184404194747693e-03 0.0000000000000000e+00  1.2675935596511601e-03 -2.7285583269849004e-03 0.0000000000000000e+00  -4.7150213881828875e-03 -2.7261340619912870e-03 0.0000000000000000e+00  -6.9881814874429632e-03 -2.7270736579211906e-03 0.0000000000000000e+00  -6.8430313089103967e-03 -2.7286238797163405e-03 0.0000000000000000e+00  -6.9881814874429632e-03 -2.7270736579211906e-03 0.0000000000000000e+00  -6.8430313089103967e-03 -2.7286238797163405e-03 0.0000000000000000e+00  -6.7597247900837579e-03 -6.8464584453856916e-03 0.0000000000000000e+00  -5.7761859740300741e-03 -2.1917487452503721e-03 0.0000000000000000e+00  -6.0779505032046129e-03 -1.0835303363643648e-03 0.0000000000000000e+00  -4.4055290931058677e-03 -4.4630548395917201e-03 0.0000000000000000e+00  -6.7150697890645200e-03 8.5075184855226335e-04 0.0000000000000000e+00  -7.1364582840612459e-03 1.4796592275507254e-03 0.0000000000000000e+00  -7.1424602312336856e-03 8.9553933958453008e-04 0.0000000000000000e+00  -1.0725450548983930e-03 6.8952397626187477e-04 0.0000000000000000e+00  1.5324219197600068e-03 -1.0977641631647796e-03 0.0000000000000000e+00  -7.2090414109129844e-03 1.1488844776807452e-03 0.0000000000000000e+00  -4.5635912665137326e-03 -6.9674023478204401e-03 0.0000000000000000e+00  -5.3254393276469753e-04 -7.0892405663140114e-03 0.0000000000000000e+00  -2.1119629316848154e-03 -5.7718948270806675e-03 0.0000000000000000e+00  -7.0016921275811413e-03 -6.9357498453270936e-03 0.0000000000000000e+00  1.5313759414328344e-03 1.4199371613954023e-03 0.0000000000000000e+00  1.4581350637572483e-03 -6.8817070361999822e-03 0.0000000000000000e+00  1.4836856533891245e-03 -5.6547658802601703e-03 0.0000000000000000e+00  -5.9234147434868980e-03 -6.9620820079942698e-03 0.0000000000000000e+00  6.1631104897990978e-04 -7.1354984167227966e-03 0.0000000000000000e+00  -5.7465809776566694e-03 1.3604179605501614e-03 0.0000000000000000e+00  1.0976692517593442e-03 -6.0990621500227691e-03 0.0000000000000000e+00  1.4963925757615088e-03 -7.2666324893537627e-03 0.0000000000000000e+00  -4.2338528665458869e-03 1.4906209270555552e-03 0.0000000000000000e+00  -7.2028934032152799e-03 -7.2844923152225469e-03 0.0000000000000000e+00  -5.7417710978401150e-03 9.9877794259949711e-04 0.0000000000000000e+00  -6.0433583883506333e-03 -5.5868218436237876e-03 0.0000000000000000e+00  -5.0767323577167629e-03 1.2931158872949672e-03 0.0000000000000000e+00  -5.0366088150523283e-03 1.1203785860686803e-03 0.0000000000000000e+00  5.0621746479115228e-04 4.9849420017119043e-04 0.0000000000000000e+00  9.4879113206075398e-04 -7.2855932483240982e-03 0.0000000000000000e+00  -2.2000093081272652e-03 -1.8091331764072901e-03 0.0000000000000000e+00  -6.5629326409591838e-03 -5.7291161438262697e-03 0.0000000000000000e+00  -4.1655923125541675e-03 -5.7511886445124815e-03 0.0000000000000000e+00  -6.1774382334598690e-03 2.4300806882571153e-04 0.0000000000000000e+00  -7.0477540012722538e-03 -6.9678716392041814e-03 0.0000000000000000e+00  -4.1626008048874204e-03 -8.6455777171131728e-05 0.0000000000000000e+00  -1.2666430980946167e-03 -7.9346622561958426e-04 0.0000000000000000e+00  -7.1035294678503070e-03 -4.4275565140968944e-03 0.0000000000000000e+00  1.4576171651171010e-03 -6.6439192663177542e-03 0.0000000000000000e+00  -5.4816010756432573e-03 -5.5603942810174512e-03 0.0000000000000000e+00  -5.4646248579015471e-03 -7.1627045070169889e-03 0.0000000000000000e+00  -7.1772755505168746e-03 -9.5812666821945406e-04 0.0000000000000000e+00  -7.2415047865579743e-03 -1.2848668932125714e-03 0.0000000000000000e+00  -2.0120653555804895e-03 -5.9744341607820472e-03 0.0000000000000000e+00  -4.9182642609562653e-05 -4.1863086309416823e-03 0.0000000000000000e+00  -1.6278099333560687e-03 -3.7132671523793237e-03 0.0000000000000000e+00  1.1645320875813339e-03 1.3681054221577800e-03 0.0000000000000000e+00  -6.6960112443075108e-03 -5.6881069797029137e-04 0.0000000000000000e+00  -7.2524251790613645e-03 -6.5613226989303828e-03 0.0000000000000000e+00  -2.1245144801489402e-03 -3.0116947401228597e-04 0.0000000000000000e+00  -2.9751745501393227e-03 -6.9877321674307498e-03 0.0000000000000000e+00  -6.9594394925058629e-03 -3.3713301980400514e-03 0.0000000000000000e+00  -4.0451960156409200e-03 -7.2168902049331071e-03 0.0000000000000000e+00  -3.9098641241800776e-03 -7.2435653723931610e-03 0.0000000000000000e+00  1.4076186375070264e-03 1.4806107182144847e-03 0.0000000000000000e+00  -6.7981317306565613e-04 -6.1436649804646757e-03 0.0000000000000000e+00  1.3371704962890734e-03 5.1058372370985149e-04 0.0000000000000000e+00  8.9425014375554119e-04 -1.5996796211598823e-03 0.0000000000000000e+00  -2.9413963663918469e-04 -6.9139464600620482e-03 0.0000000000000000e+00  -6.5241950168417120e-03 1.4750303135479758e-03 0.0000000000000000e+00  -3.2420458702359317e-03 -6.4434927112047690e-03 0.0000000000000000e+00  4.7644283125227241e-04 -1.3095820888482947e-03 0.0000000000000000e+00  -5.4643944257945021e-03 -7.1463914243246555e-03 0.0000000000000000e+00  -1.3552392303039578e-03 -3.6394910322157491e-03 0.0000000000000000e+00  -1.4396319767523984e-03 -5.6250392485299372e-03 0.0000000000000000e+00  4.9590692835792499e-04 -4.5111409478213208e-03 0.0000000000000000e+00  -7.1486244064479119e-04 1.4669364961464035e-03 0.0000000000000000e+00  1.2525345195299594e-03 -4.5310541898276871e-03 0.0000000000000000e+00  1.0544547314695390e-03 -5.5866934595832354e-04 0.0000000000000000e+00  -6.5127554098478218e-03 -2.1123648544879060e-03 0.0000000000000000e+00  -5.4177158997698125e-03 7.2030989896934182e-04 0.0000000000000000e+00  -4.1243369994082985e-03 4.9430034641057127e-04 0.0000000000000000e+00  -5.0288857757336530e-03 -7.2760550818608783e-03 0.0000000000000000e+00  -3.0074452775707863e-03 -7.2054304820968170e-03 0.0000000000000000e+00  -1.5785249328355998e-03 1.4363373643615817e-03 0.0000000000000000e+00  5.8544894574582098e-04 1.2104573507274545e-03 0.0000000000000000e+00  -6.4215226746332814e-03 -6.0803268920437900e-03 0.0000000000000000e+00  -7.2534210911198013e