<?xml version="1.0"?>
<VTKFile type="UnstructuredGrid"  version="0.1"  >
<UnstructuredGrid>
<Piece  NumberOfPoints="1380" NumberOfCells="2630">
<Points>
<DataArray  type="Float64"  NumberOfComponents="3"  format="ascii">-1 -1 0  1 -1 0  1 1 0  -1 1 0  0 -1 0  1 0 0  0 1 0  -1 0 0  0 0 0  -1 -0.5 0  -0.5 -1 0  -0.5 1 0  -1 0.5 0  1 -0.5 0  0.5 -1 0  1 0.5 0  0.5 1 0  0.4166666666666666 -0.4166666666666667 0  -0.4166666666666667 0.4166666666666667 0  -0.25 -0.5 0  0.5 0.25 0  -0.4861111111111112 -0.06944444444444445 0  0.0732758620689655 0.507183908045977 0  -0.625 -0.625 0  0.625 0.625 0  0.7380952380952381 -0.25 0  -0.7099116161616161 0.2105429292929293 0  -0.25 0.7380952380952381 0  0.105392156862745 -0.6348039215686275 0  0.6770833333333334 -0.6770833333333333 0  -0.6770833333333334 0.6770833333333334 0  0.3472222222222222 -0.06944444444444446 0  -0.7264957264957265 -0.3044871794871795 0  0.3141940982507127 0.7297313660835709 0  0.02049587951122483 -0.3227479397556124 0  -0.2690972222222223 0.1475694444444444 0  0.3859500089908372 -0.7274430156831472 0  -0.2228477945123298 -0.1761765495248019 0  0.2182539682539683 0.1884920634920635 0  0.75 0.375 0  -0.145442219440968 -0.7602211097204841 0  0.7088913690476191 0.0427827380952381 0  -0.75 -1 0  -1 -0.75 0  1 0.75 0  0.75 1 0  -0.7439982703698937 -0.04614153195464455 0  -0.4609235096577606 -0.3356498099556895 0  0.4063134471431929 0.4895621842856023 0  0.25 -1 0  -0.25 -1 0  -0.75 1 0  0.75 -1 0  -1 -0.25 0  -1 0.25 0  1 -0.25 0  -0.25 1 0  1 -0.75 0  -1 0.75 0  0.25 1 0  1 0.25 0  -0.4041423272138783 -0.7597141090712928 0  0.06500839607911253 0.7578103030529481 0  -0.1572801182352047 0.3838997021864289 0  -0.6528005242053915 0.4409494757946086 0  -0.4930160984848485 0.1544744318181818 0  -0.4732142857142858 0.7752976190476191 0  0.6398809523809523 -0.4538690476190476 0  0.5166054117396399 -0.2161233620965164 0  -0.002273787244753427 0.2232363985975174 0  0.1500564496765022 -0.1524955293952667 0  0.2016720420046758 -0.4410343282803009 0  -0.08495178036419618 0.6274139771124571 0  -0.8367311471133162 0.3642591720794645 0  -0.8333333333333334 -0.625 0  -0.594323836800685 -0.8231079456002283 0  -0.4466957714776065 -0.5349126855671806 0  0.8125 0.5625 0  0.78125 0.78125 0  0.5091392650016769 0.7947130883338923 0  0.125 -0.8382681931833136 0  -0.8184523809523809 -0.8184523809523809 0  -0.07781530426104531 -0.5819319697006881 0  0.5085055196703295 0.04967610411902112 0  0.2918471072074933 -0.276017202318847 0  0.5120763537765269 -0.5898771553229597 0  0.625 -0.8585349462365591 0  0.8158532234335381 -0.8158532234335381 0  -0.5198088446315396 0.5739411553684605 0  -0.8585349462365591 0.625 0  -0.8150493805516597 0.8156205699829586 0  0.8585349462365591 -0.625 0  -0.2688268348649726 0.5439331383603209 0  0.8242100426758139 -0.4436043596336612 0  0.5833756314287952 0.4479378157143976 0  0.8690476190476191 -0.125 0  -0.125 0.8690476190476191 0  -0.8692745600729823 0.125 0  0.8696725120759167 0.125 0  -0.625 0.8711516477451908 0  0.2339522463269718 0.3879558377955778 0  0.2453709502295031 0.5655822922838026 0  0.1730610651637797 0.02021709580868947 0  0.3245402594056757 -0.5644672020485209 0  -0.7291666666666666 -0.4816595441595442 0  -1 -0.375 0  -0.5811140848639904 -0.2127276307675001 0  0.673332592838314 0.2158348143233718 0  0.375 1 0  -0.5714768890989919 0.2985103444040069 0  -1 -0.125 0  -0.8453692574786325 -0.1875 0  -0.3144549134065865 -0.02408675326008025 0  -0.2898414972096258 -0.3336092734780093 0  -0.1075052092206287 -0.4224330421314983 0  -0.05043970703604117 -0.1652278959397459 0  0.6459672950297897 -0.1113415301525317 0  0.4645210271029513 0.6398480556579343 0  0.3512863754411909 0.0937979496253573 0  -0.6063160985568274 0.03891469652249891 0  -0.3428819444444445 0.8690476190476191 0  0.625 1 0  -0.1602164796159982 0.02697860906625157 0  0.04648110064133829 -0.4808416424239687 0  1 0.875 0  -0.3836102479201657 0.6484936449177356 0  -0.3776011723096096 0.263078478984336 0  -0.6024978259969829 -0.3949628096211138 0  0.125 1 0  0.2010781308272777 0.8456221018461906 0  0.2822509696388829 -0.845902544691141 0  -0.3285533674953515 -0.6289773550938936 0  0.3461306793221754 0.278777492464833 0  0.4737475672408696 -0.8508448959534423 0  0.2384632828836344 -0.7029523187242811 0  -0.004777287059791593 0.3759269695907358 0  -0.8499735021850066 -0.3912320205328522 0  0.1222536293721587 0.2963971539625205 0  -0.3769456520999688 -0.203572526805711 0  -0.2749617205755651 -0.8464290792698902 0  0.004805888512766143 -0.747174355248311 0  -0.125 -1 0  -0.06001061822252458 -0.8724007765244854 0  0.875 0.4375 0  0.854421179608893 0.271342359217786 0  0.875 1 0  -0.1499861095763589 0.2358309656934888 0  0.3381943639137225 0.8663061796405532 0  -0.7853090110442228 0.4998412775277108 0  0.7398165998560814 -0.5535192694951373 0  0.1580042122341573 -0.3100246140259917 0  -0.7291666666666667 -0.7142857142857142 0  -0.375 -1 0  0.6483368386154684 0.8514905990110488 0  -0.1295370103291928 -0.2826118305021242 0  0.07458201853700455 0.1123894386563915 0  0.6146465857036327 -0.3161203659316075 0  0.5551898493894731 -0.740296118159085 0  0.375 -1 0  0.482702798370208 -0.084133350091034 0  0.87890625 0.68359375 0  -0.05917195534525846 0.4971092425697621 0  0.1260710309213975 0.6343750312956699 0  0.8690476190476191 -0.3077066815262848 0  -0.2912010232560567 0.3668168386732139 0  -0.875 1 0  -1 0.875 0  1 -0.875 0  0.875 -1 0  -0.8689564281364567 -0.006189266075306407 0  -0.7449425635110547 0.08458938160051771 0  -0.7150266761936593 -0.1739444581417552 0  -0.5260034831318311 -0.711099823962112 0  -0.4724626808827322 -0.871722230709409 0  0.4734436795977052 0.377714794132168 0  -0.875 -1 0  -1 -0.875 0  0.6927189078571988 0.5156567235715964 0  -0.3742497615796874 -0.4296005251260107 0  -0.1969436423297711 -0.6387157229772615 0  -0.6179496409766825 -0.08933356056510935 0  -0.424405057115988 0.04452428810878029 0  -0.08479048335844169 0.1279607007132633 0  0.003830300099055113 0.8712085230656206 0  0.8748778838820267 -1.379218479898026e-05 0  -0.375 1 0  -0.625 1 0  1 0.125 0  -0.125 1 0  1 -0.375 0  1 -0.125 0  1 -0.625 0  0.625 -1 0  0.125 -1 0  -0.625 -1 0  -1 -0.625 0  -1 0.125 0  -1 0.375 0  -1 0.625 0  1 0.375 0  1 0.625 0  0.6325660748712082 0.3335187599557389 0  -0.06420945895056573 0.7549874027425891 0  -0.8769015540914771 0.2478802253893416 0  0.871875 0.871875 0  -0.6868091492840067 0.3270978624973681 0  -0.5363597469565949 0.412994850055505 0  -0.6803734992638302 0.5574295000651103 0  -0.7076253581162534 -0.8803439094224437 0  -0.8778089002295137 -0.5106896447504627 0  -0.3860184984222981 0.530566778071246 0  0.6109900617121508 0.1128453077697081 0  0.3896945134930274 -0.1915382873255086 0  0.7605656944697778 -0.06822134873122943 0  0.3576151269893478 0.5948388411612135 0  -0.5689902680792265 -0.5143596830118065 0  0.6262446286847614 -0.5735657901943212 0  0.2030558252325225 -0.5625263842513452 0  0.6123273142928579 0.7407533260723429 0  0.4016460890123554 -0.3042863223111857 0  -0.59039693199147 0.7578418819188018 0  0.7276932493917544 -0.3705808024528924 0  0.5222536818742854 -0.4713886230400014 0  -0.5101986527137737 0.8848365765607674 0  0.510560172809238 0.5356013299918891 0  -0.3603569195756083 0.75823710606415 0  0.1967279277813232 0.728226870058472 0  -0.6086880986371127 0.1545624071548516 0  -0.38105366729386 0.1511189987807864 0  -0.2944659463671584 -0.7359061804869591 0  0.5060729154966499 -0.3475227845833823 0  -0.09281616240412746 -0.06197858250969457 0  0.7649739583333334 0.6673177083333334 0  0.7628906249999999 0.890234375 0  -0.2666864184909611 0.2585504071132311 0  0.3635064892129658 0.3878003602709461 0  -0.2339409722222222 0.8901937905844155 0  -0.1718792125974916 -0.8957733325456778 0  0.1001768566329531 0.4023510017391879 0  0.3120260172693757 -0.4540546875576884 0  0.7804062804433681 0.1896628610854537 0  0.4087715451998049 0.187961780041608 0  -0.1584963477271457 0.5451611892421655 0  -0.8926817849258324 0.463022006336401 0  0.2338091473445219 -0.07576267331277289 0  0.08171112182813692 -0.2349087687359925 0  0.04635385178956847 -0.1044635073718474 0  -0.4377391632114205 -0.6448874471423088 0  -0.1907678351227189 0.6480215912813945 0  0.300605946475244 0.4741444604171038 0  -0.2145033720757486 -0.06751709909419711 0  0.6069191921170397 -0.005492331448357812 0  0.0214718770761248 0.6032397936031719 0  0.5476675683364878 0.8992752415326501 0  0.4387475014316537 0.9093708953002239 0  -0.4932997685306436 -0.4381009159993523 0  0.2515197695339056 -0.1791673369138964 0  -0.7291666666666667 -0.6088789682539681 0  -0.9166666666666667 -0.6875 0  0.620579540363709 -0.2122431523583302 0  -0.484950136419973 0.6719440339397442 0  0.2857044415400258 0.0137589173127316 0  -0.8945708364098356 -0.288306105327986 0  0.4043102720140535 0.7842914560451557 0  0.04123256238752064 -0.9026968245801402 0  0.2003676884403109 -0.9091888601740487 0  0.1068775558538842 -0.7373377130403223 0  -0.4804566783514427 -0.1763307203045643 0  0.108286342087769 -0.3993789328997278 0  -0.191883080105361 -0.3640821726430649 0  -0.07025064492006244 0.2984876656890053 0  -0.7039324641409584 0.788312126296613 0  -0.7311286585775438 0.8932502354831682 0  0.5171409396884947 0.1503852691889257 0  0.4229392823658633 -0.003216522184234835 0  -0.5621736087218259 -0.919558629836806 0  -0.626474064879544 -0.7266572613636506 0  0.2446828746617422 0.2867616783302419 0  0.1759429608742923 0.4776611759306416 0  -0.3468240303741654 -0.5260416435617549 0  -0.7465808808425306 0.4069574477998361 0  -0.7819962170660292 0.2802441065650652 0  -0.3742623214119594 -0.8547800509641984 0  0.1014498009713561 0.8506721983266377 0  0.4285217620918213 -0.5230190595570253 0  0.4091738370487775 -0.6256346204225141 0  0.78125 0.46875 0  0.90625 0.53125 0  -0.4791801348852565 0.2553992655702126 0  0.7843318610782772 -0.7086046956885941 0  0.8909728264971901 -0.7355183796514634 0  0.7041908166528879 -0.7830649143180282 0  0.7311821352
[...]
<PointData  Vectors="f_22"> 
<DataArray  type="Float64"  Name="f_22"  NumberOfComponents="3" format="ascii">-2.8222964596016126e-03 -2.8669089023160500e-03 0.0000000000000000e+00  -2.8222964596016126e-03 -2.8669089023160500e-03 0.0000000000000000e+00  -2.8222964596016126e-03 -2.8669089023160500e-03 0.0000000000000000e+00  -2.8222964596016126e-03 -2.8669089023160500e-03 0.0000000000000000e+00  -2.8221674462223876e-03 -2.9374886436801654e-03 0.0000000000000000e+00  -2.8980660228373565e-03 -2.8667541135243301e-03 0.0000000000000000e+00  -2.8221674462223876e-03 -2.9374886436801654e-03 0.0000000000000000e+00  -2.8980660228373565e-03 -2.8667541135243301e-03 0.0000000000000000e+00  -2.8981763397346711e-03 -2.9376514477951667e-03 0.0000000000000000e+00  -2.2451950971114497e-03 -2.8668227319317363e-03 0.0000000000000000e+00  -2.8222348292381203e-03 -2.2872532329441127e-03 0.0000000000000000e+00  -2.8222348292381203e-03 -2.2872532329441127e-03 0.0000000000000000e+00  -3.4751750751997141e-03 -2.8668119034097098e-03 0.0000000000000000e+00  -2.2451950971114497e-03 -2.8668227319317363e-03 0.0000000000000000e+00  -2.8222150469156084e-03 -3.5171837076109934e-03 0.0000000000000000e+00  -3.4751750751997141e-03 -2.8668119034097098e-03 0.0000000000000000e+00  -2.8222150469156084e-03 -3.5171837076109934e-03 0.0000000000000000e+00  -2.2759084271946964e-03 -3.5053241496604114e-03 0.0000000000000000e+00  -3.4639605385562654e-03 -2.3173030285543916e-03 0.0000000000000000e+00  -2.2452591556928313e-03 -2.4924058264565738e-03 0.0000000000000000e+00  -3.3219163623489411e-03 -3.5172179899479734e-03 0.0000000000000000e+00  -2.7641414617297225e-03 -2.2893929363185218e-03 0.0000000000000000e+00  -3.4741625184288704e-03 -3.0769936087903984e-03 0.0000000000000000e+00  -2.2775775275609548e-03 -2.3206046684432391e-03 0.0000000000000000e+00  -3.4138959905171233e-03 -3.4568827482518265e-03 0.0000000000000000e+00  -2.4520833415004354e-03 -3.3288579678520053e-03 0.0000000000000000e+00  -3.2678245382557281e-03 -2.3944579355162448e-03 0.0000000000000000e+00  -3.2850984733815976e-03 -2.4923107679464835e-03 0.0000000000000000e+00  -2.2838926329969865e-03 -3.1355185933904222e-03 0.0000000000000000e+00  -2.3178745652666262e-03 -3.4057129166346692e-03 0.0000000000000000e+00  -3.3623408437027397e-03 -2.3612945368715003e-03 0.0000000000000000e+00  -2.7641497692439143e-03 -3.4640513800049139e-03 0.0000000000000000e+00  -2.3794834747966381e-03 -2.4133991705755993e-03 0.0000000000000000e+00  -3.2967819367896120e-03 -3.4348585341918516e-03 0.0000000000000000e+00  -2.3581780835949541e-03 -2.9771167449984277e-03 0.0000000000000000e+00  -3.1691429149092124e-03 -2.4655664031978134e-03 0.0000000000000000e+00  -2.3706900989829355e-03 -3.4904720680183680e-03 0.0000000000000000e+00  -2.5692552251815478e-03 -2.5331105597628514e-03 0.0000000000000000e+00  -3.2349921855335585e-03 -3.3190482328207035e-03 0.0000000000000000e+00  -3.4429135282448482e-03 -3.3120710092933016e-03 0.0000000000000000e+00  -2.4118310228637839e-03 -2.6626234986088949e-03 0.0000000000000000e+00  -2.9801598860244665e-03 -3.3677949174478260e-03 0.0000000000000000e+00  -2.8222669302126698e-03 -2.4424347411661834e-03 0.0000000000000000e+00  -2.3985562362029071e-03 -2.8668833508324631e-03 0.0000000000000000e+00  -3.2682374763078441e-03 -2.8668657063455651e-03 0.0000000000000000e+00  -2.8222712127222598e-03 -3.3120716902004868e-03 0.0000000000000000e+00  -2.8088517511071472e-03 -2.4346624728626412e-03 0.0000000000000000e+00  -2.3441539872645759e-03 -2.2962658489845932e-03 0.0000000000000000e+00  -3.4761515104241225e-03 -3.5010569531944936e-03 0.0000000000000000e+00  -2.8221819065114184e-03 -3.3620266635998896e-03 0.0000000000000000e+00  -2.8221821060622383e-03 -2.4923340570265264e-03 0.0000000000000000e+00  -2.8222669302126698e-03 -2.4424347411661834e-03 0.0000000000000000e+00  -2.8222712127222598e-03 -3.3120716902004868e-03 0.0000000000000000e+00  -2.4520972531203254e-03 -2.8667815480978845e-03 0.0000000000000000e+00  -3.3218274791113047e-03 -2.8667713545459873e-03 0.0000000000000000e+00  -2.4520972531203254e-03 -2.8667815480978845e-03 0.0000000000000000e+00  -2.8221821060622383e-03 -2.4923340570265264e-03 0.0000000000000000e+00  -2.3985562362029071e-03 -2.8668833508324631e-03 0.0000000000000000e+00  -3.2682374763078441e-03 -2.8668657063455651e-03 0.0000000000000000e+00  -2.8221819065114184e-03 -3.3620266635998896e-03 0.0000000000000000e+00  -3.3218274791113047e-03 -2.8667713545459873e-03 0.0000000000000000e+00  -2.4112178998161042e-03 -2.3254393462545102e-03 0.0000000000000000e+00  -3.2567035315231806e-03 -3.0615286742099700e-03 0.0000000000000000e+00  -3.4482339353935645e-03 -2.6417064682701607e-03 0.0000000000000000e+00  -3.4715460508168445e-03 -2.3403581942949376e-03 0.0000000000000000e+00  -3.1805994947869494e-03 -2.2881436926181654e-03 0.0000000000000000e+00  -3.2301837657664088e-03 -2.2923593011765940e-03 0.0000000000000000e+00  -2.2570498681867605e-03 -3.4436084541368656e-03 0.0000000000000000e+00  -2.5034649615094978e-03 -3.5144435392075474e-03 0.0000000000000000e+00  -3.2860261756392111e-03 -2.9332599854108945e-03 0.0000000000000000e+00  -2.6104068360153073e-03 -3.2130650074152999e-03 0.0000000000000000e+00  -2.2626726267156476e-03 -3.2947820932833724e-03 0.0000000000000000e+00  -3.4117013381135411e-03 -2.7740992072251142e-03 0.0000000000000000e+00  -3.4357353867584825e-03 -2.5695379015094537e-03 0.0000000000000000e+00  -2.2775554293727037e-03 -2.5641691437371817e-03 0.0000000000000000e+00  -2.5035783536822335e-03 -2.3037892514529250e-03 0.0000000000000000e+00  -2.2448217070191591e-03 -2.3018129974382204e-03 0.0000000000000000e+00  -3.4560036782365329e-03 -3.2144652480896206e-03 0.0000000000000000e+00  -3.2210387894216776e-03 -3.2650312442591280e-03 0.0000000000000000e+00  -3.1995845374090497e-03 -3.5159465357509222e-03 0.0000000000000000e+00  -2.5277688211070557e-03 -3.1701688762120084e-03 0.0000000000000000e+00  -2.4962705180583784e-03 -2.5405017826092956e-03 0.0000000000000000e+00  -2.2558099678812050e-03 -2.7876870484063580e-03 0.0000000000000000e+00  -2.9932806764754187e-03 -3.5160149275207599e-03 0.0000000000000000e+00  -2.4158003300375755e-03 -3.4118199493257803e-03 0.0000000000000000e+00  -2.2589079734372367e-03 -3.5153246596561281e-03 0.0000000000000000e+00  -2.5615190225066814e-03 -3.4568149596043264e-03 0.0000000000000000e+00  -2.4921846579734016e-03 -3.2088529809514731e-03 0.0000000000000000e+00  -3.4498213675778332e-03 -2.2861863885675500e-03 0.0000000000000000e+00  -3.4138205630602015e-03 -2.6058805834866185e-03 0.0000000000000000e+00  -3.1650551888381282e-03 -2.5351547973062405e-03 0.0000000000000000e+00  -2.2774909697056344e-03 -3.1346436996512843e-03 0.0000000000000000e+00  -3.4640210205794087e-03 -2.4658719921399029e-03 0.0000000000000000e+00  -2.2614614274655731e-03 -3.1946340886627577e-03 0.0000000000000000e+00  -3.4732084159909658e-03 -3.4870844052678281e-03 0.0000000000000000e+00  -2.6598137565405824e-03 -3.1156106380146554e-03 0.0000000000000000e+00  -3.0712369156197785e-03 -2.6994733219752390e-03 0.0000000000000000e+00  -3.1305129258575341e-03 -2.6241745125409736e-03 0.0000000000000000e+00  -3.1305353343657068e-03 -3.1144939055247427e-03 0.0000000000000000e+00  -3.0674716855339213e-03 -2.3205444373325976e-03 0.0000000000000000e+00  -3.4506066541580261e-03 -3.3408916166686839e-03 0.0000000000000000e+00  -3.4544335441197113e-03 -3.3561122956667798e-03 0.0000000000000000e+00  -2.9371508461242556e-03 -3.2506890647172517e-03 0.0000000000000000e+00  -2.2500659159101961e-03 -3.4445626471326781e-03 0.0000000000000000e+00  -2.2484619475765548e-03 -2.4165965893158388e-03 0.0000000000000000e+00  -2.3065020501950194e-03 -2.8667942670157786e-03 0.0000000000000000e+00  -2.5089144884419723e-03 -2.2982168641790019e-03 0.0000000000000000e+00  -3.2755248370167959e-03 -3.4098960161953189e-03 0.0000000000000000e+00  -2.8221977827455305e-03 -3.4838840705866173e-03 0.0000000000000000e+00  -3.3784047735047275e-03 -2.2947495516336155e-03 0.0000000000000000e+00  -2.6598290427948717e-03 -2.8667465341674593e-03 0.0000000000000000e+00  -2.5500243430577052e-03 -2.5837545669946701e-03 0.0000000000000000e+00  -2.8515803288110876e-03 -2.4083220623521834e-03 0.0000000000000000e+00  -2.3463409602906774e-03 -2.4382656945657185e-03 0.0000000000000000e+00  -2.2725623363344474e-03 -2.7318673764927977e-03 0.0000000000000000e+00  -2.5881145061377839e-03 -2.8401574140633234e-03 0.0000000000000000e+00  -2.6850144603156631e-03 -3.4379057248239780e-03 0.0000000000000000e+00  -3.4006717176725543e-03 -3.5173463774334072e-03 0.0000000000000000e+00  -3.0751548468451865e-03 -3.4672601430024625e-03 0.0000000000000000e+00  -2.9728270793013341e-03 -2.3096018050908365e-03 0.0000000000000000e+00  -3.0712473750707015e-03 -2.3773621572909936e-03 0.0000000000000000e+00  -2.8222310873750301e-03 -3.4568519512191637e-03 0.0000000000000000e+00  -2.9501047393901718e-03 -2.6366348881298098e-03 0.0000000000000000e+00  -2.2485896587667621e-03 -3.0266926700697363e-03 0.0000000000000000e+00  -3.0605051737234547e-03 -2.8668736482737318e-03 0.0000000000000000e+00  -3.3922830079294018e-03 -2.3404898224732790e-03 0.0000000000000000e+00  -3.3381986362653097e-03 -2.3453999938559413e-03 0.0000000000000000e+00  -2.2907373793584268e-03 -2.3077183251715536e-03 0.0000000000000000e+00  -2.8221738728703379e-03 -3.1701500579213652e-03 0.0000000000000000e+00  -3.1132788870608949e-03 -3.2938590773411900e-03 0.0000000000000000e+00  -2.5403238282302319e-03 -3.4011085564789206e-03 0.0000000000000000e+00  -2.2800973338529184e-03 -2.3924796412907920e-03 0.0000000000000000e+00  -3.3568991709219242e-03 -3.4632232639992822e-03 0.0000000000000000e+00  -2.5485478808469539e-03 -3.5179705147879961e-03 0.0000000000000000e+00  -2.3433656672641641e-03 -3.3468540976546463e-03 0.0000000000000000e+00  -3.4434768892006233e-03 -2.9283832506640114e-03 0.0000000000000000e+00  -2.2934787010693031e-03 -2.5914827084148363e-03 0.0000000000000000e+00  -3.3762988094873923e-03 -3.1655162322426636e-03 0.0000000000000000e+00  -2.5236559072597479e-03 -2.3460207834016637e-03 0.0000000000000000e+00  -2.5412488184032907e-03 -2.4575946251574332e-03 0.0000000000000000e+00  -2.3948516118407763e-03 -2.9467986261343007e-03 0.0000000000000000e+00  -2.8221662480573850e-03 -2.6994878682453966e-03 0.0000000000000000e+00  -2.5852162885660434e-03 -2.8216244833748098e-03 0.0000000000000000e+00  -3.4707766452224805e-03 -3.1048678000773584e-03 0.0000000000000000e+00  -3.3481560499841723e-03 -3.1419872243210762e-03 0.0000000000000000e+00  -2.8222760077498831e-03 -3.1049016655680757e-03 0.0000000000000000e+00  -3.3032774337575445e-03 -2.6545997859305798e-03 0.0000000000000000e+00  -3.0763007491726854e-03 -3.4566368908480827e-03 0.0000000000000000e+00  -3.4751395516071761e-03 -2.4905087976007123e-03 0.0000000000000000e+00  -2.2474739046600884e-03 -3.3264800707315202e-03 0.0000000000000000e+00  -2.3728515856997882e-03 -3.2262267771057643e-03 0.0000000000000000e+00  -2.3557982536445395e-03 -2.4166247313684086e-03 0.0000000000000000e+00  -2.8222068060750481e-03 -2.3475758592258109e-03 0.0000000000000000e+00  -3.1029407295533949e-03 -3.4357495940850538e-03 0.0000000000000000e+00  -2.4071203831525904e-03 -2.6913538483194300e-03 0.0000000000000000e+00  -3.1085083206864091e-03 -3.0794633659292831e-03 0.0000000000000000e+00  -2.3656484779526065e-03 -3.4651664061929035e-03 0.0000000000000000e+00  -2.3862178761797853e-03 -3.5018136729820519e-03 0.0000000000000000e+00  -2.8221977827455305e-03 -3.4838840705866173e-03 0.0000000000000000e+00  -2.7361181032849184e-03 -3.5181755061522149e-03 0.0000000000000000e+00  -3.3550246360814734e-03 -3.0977471810548635e-03 0.0000000000000000e+00  -3.4754633238220415e-03 -2.8233084204743169e-03 0.0000000000000000e+00  -3.4056148113441320e-03 -3.1720937902311318e-03 0.0000000000000000e+00  -2.3755316446705762e-03 -3.1156092228230895e-03 0.0000000000000000e+00  -3.4374962805114465e-03 -2.4364242820160893e-03 0.0000000000000000e+00  -2.8222912138676543e-03 -2.6342820626202254e-03 0.0000000000000000e+00  -3.0605051737234547e-03 -2.8668736482737318e-03 0.0000000000000000e+00  -2.5898518920532184e-03 -2.8669048026598496e-03 0.0000000000000000e+00  -2.8222760077498831e-03 -3.1049016655680757e-03 0.0000000000000000e+00  -2.8861089460085298e-03 -2.6236515810218915e-03 0.0000000000000000e+00  -3.0582689496706436e-03 -2.4358413132185629e-03 0.0000000000000000e+00  -2.5730002515236155e-03 -2.4001909276889334e-03 0.0000000000000000e+00  -2.3522619516551354e-03 -2.2864768032348592e-03 0.0000000000000000e+00  -2.5841572658282931e-03 -2.2926301270040565e-03 0.0000000000000000e+00  -3.4446336387461917e-03 -3.5180451722241503e-03 0.0000000000000000e+00  -2.8222912138676543e-03 -2.6342820626202254e-03 0.0000000000000000e+00  -2.5898518920532184e-03 -2.8669048026598496e-03 0.0000000000000000e+00  -3.4726227382554042e-03 -3.3877750459984403e-03 0.0000000000000000e+00  -2.2685730514086901e-03 -2.3482833825861976e-03 0.0000000000000000e+00  -2.2866854471528088e-03 -2.5743588199440724e-03 0.0000000000000000e+00  -2.7263009426924346e-03 -2.3161716864202818e-03 0.0000000000000000e+00  -2.9835091683090768e-03 -2.3128395116035838e-03 0.0000000000000000e+00  -3.1357934205623289e-03 -2.7745218030348971e-03 0.0000000000000000e+00  -3.0672903648878936e-03 -2.9449063915023051e-03 0.0000000000000000e+00  -2.8980360367063481e-03 -3.1049989736154993e-03 0.0000000000000000e+00  -2.8222068060750481e-03 -2.3475758592258109e-03 0.0000000000000000e+00  -2.8222395742061963e-03 -2.3205678056398573e-03 0.0000000000000000e+00  -3.1305096496386173e-03 -2.8667643820864445e-03 0.0000000000000000e+00  -2.8221662480573850e-03 -2.6994878682453966e-03 0.0000000000000000e+00  -2.3065020501950194e-03 -2.8667942670157786e-03 0.0000000000000000e+00  -2.6598290427948717e-03 -2.8667465341674593e-03 0.0000000000000000e+00  -2.2775249004277670e-03 -2.8668393993749419e-03 0.0000000000000000e+00  -2.8222310873750301e-03 -3.4568519512191637e-03 0.0000000000000000e+00  -2.8221738728703379e-03 -3.1701500579213652e-03 0.0000000000000000e+00  -2.8222395742061963e-03 -2.3205678056398573e-03 0.0000000000000000e+00  -2.2775249004277670e-03 -2.8668393993749419e-03 0.0000000000000000e+00  -3.1305096496386173e-03 -2.8667643820864445e-03 0.0000000000000000e+00  -3.4428622093899300e-03 -2.8667961956594171e-03 0.0000000000000000e+00  -3.4138567288727710e-03 -2.8668520615761010e-03 0.0000000000000000e+00  -3.4428622093899300e-03 -2.8667961956594171e-03 0.0000000000000000e+00  -3.4138567288727710e-03 -2.8668520615761010e-03 0.0000000000000000e+00  -3.4119677301178526e-03 -3.4503302702324312e-03 0.0000000000000000e+00  -3.2608522878265493e-03 -2.8135866213237185e-03 0.0000000000000000e+00  -3.3191010707297611e-03 -2.6374374232093546e-03 0.0000000000000000e+00  -3.0662338865946929e-03 -3.1105962842900487e-03 0.0000000000000000e+00  -3.4062074781120418e-03 -2.3704935373572767e-03 0.0000000000000000e+00  -3.4625063712345788e-03 -2.2871637270584543e-03 0.0000000000000000e+00  -3.4583126746828420e-03 -2.3643459022053186e-03 0.0000000000000000e+00  -2.5991739417457814e-03 -2.3921166391060395e-03 0.0000000000000000e+00  -2.2443027488864248e-03 -2.6391305682301478e-03 0.0000000000000000e+00  -3.4686067198405296e-03 -2.3385885618309172e-03 0.0000000000000000e+00  -3.1092764978264725e-03 -3.4680712942898226e-03 0.0000000000000000e+00  -2.5433105400268492e-03 -3.4926259135225593e-03 0.0000000000000000e+00  -2.7663936617644018e-03 -3.2964611166328085e-03 0.0000000000000000e+00  -3.4369790035621577e-03 -3.4720177424033996e-03 0.0000000000000000e+00  -2.2441935630269586e-03 -2.2941023010881367e-03 0.0000000000000000e+00  -2.2527979596657379e-03 -3.4557042273739825e-03 0.0000000000000000e+00  -2.2495640783913025e-03 -3.2968106892157841e-03 0.0000000000000000e+00  -3.2814944555779779e-03 -3.4671063212997066e-03 0.0000000000000000e+00  -2.3796623382513877e-03 -3.4987759000718499e-03 0.0000000000000000e+00  -3.2566401487357909e-03 -2.3019571400425798e-03 0.0000000000000000e+00  -2.3102627465568489e-03 -3.3431343332382137e-03 0.0000000000000000e+00  -2.2510137451501591e-03 -3.5131309680760735e-03 0.0000000000000000e+00  -3.0423113436428726e-03 -2.2864195351512198e-03 0.0000000000000000e+00  -3.4671572165838977e-03 -3.5157212978551675e-03 0.0000000000000000e+00  -3.2560232214791239e-03 -2.3604521289911887e-03 0.0000000000000000e+00  -3.2987992217487386e-03 -3.2873608136124079e-03 0.0000000000000000e+00  -3.1807144627036352e-03 -2.3108565625108053e-03 0.0000000000000000e+00  -3.1750495844767739e-03 -2.3425950289131425e-03 0.0000000000000000e+00  -2.3809217286601065e-03 -2.4323391863977839e-03 0.0000000000000000e+00  -2.3318391139198085e-03 -3.5163230750904851e-03 0.0000000000000000e+00  -2.7784798576745589e-03 -2.7593704496256849e-03 0.0000000000000000e+00  -3.3731581973263820e-03 -3.2900052585339021e-03 0.0000000000000000e+00  -3.0323972218949677e-03 -3.2931326906196932e-03 0.0000000000000000e+00  -3.3326443332326854e-03 -2.4688469480139983e-03 0.0000000000000000e+00  -3.4505297413612041e-03 -3.4762798218297610e-03 0.0000000000000000e+00  -3.0323306853758275e-03 -2.5160270440813632e-03 0.0000000000000000e+00  -2.6264351148717292e-03 -2.6163316391817387e-03 0.0000000000000000e+00  -3.4579528367429091e-03 -3.1262632619854999e-03 0.0000000000000000e+00  -2.2569968065178419e-03 -3.4326863105587527e-03 0.0000000000000000e+00  -3.2367180563413946e-03 -3.2662666823590944e-03 0.0000000000000000e+00  -3.2341951237258039e-03 -3.5021454491148537e-03 0.0000000000000000e+00  -3.4635616510399303e-03 -2.6395434815066738e-03 0.0000000000000000e+00  -3.4753973893471295e-03 -2.6653601885564312e-03 0.0000000000000000e+00  -2.7521081219674354e-03 -3.3406950592781426e-03 0.0000000000000000e+00  -2.4745205694237360e-03 -3.0926234504505936e-03 0.0000000000000000e+00  -2.6979460931106885e-03 -3.0265259589273273e-03 0.0000000000000000e+00  -2.2912095219864812e-03 -2.3059040578429814e-03 0.0000000000000000e+00  -3.3927653298093277e-03 -2.5844757198731768e-03 0.0000000000000000e+00  -3.4762789812183038e-03 -3.4212131608616688e-03 0.0000000000000000e+00  -2.7678708903631278e-03 -2.5461722722368522e-03 0.0000000000000000e+00  -2.8874886899462370e-03 -3.4711097226761845e-03 0.0000000000000000e+00  -3.4309779538738328e-03 -2.9789433222981655e-03 0.0000000000000000e+00  -3.0155015162227619e-03 -3.5050479343059189e-03 0.0000000000000000e+00  -2.9964960006414361e-03 -3.5126014126485769e-03 0.0000000000000000e+00  -2.2641991201470348e-03 -2.2881980348684436e-03 0.0000000000000000e+00  -2.5641121836452296e-03 -3.3640437145334005e-03 0.0000000000000000e+00  -2.2681768616539758e-03 -2.4166223491110181e-03 0.0000000000000000e+00  -2.3278259051204885e-03 -2.7089508232724917e-03 0.0000000000000000e+00  -2.5095832355204362e-03 -3.4604183799895171e-03 0.0000000000000000e+00  -3.3679988194970931e-03 -2.2895598231344001e-03 0.0000000000000000e+00  -2.9247156424834038e-03 -3.4051097261772866e-03 0.0000000000000000e+00  -2.3996472222149652e-03 -2.6687581194600623e-03 0.0000000000000000e+00  -3.2162358306686311e-03 -3.5000943815616920e-03 0.0000000000000000e+00  -2.6388504384944633e-03 -3.0166230977303849e-03 0.0000000000000000e+00  -2.6506293129801889e-03 -3.2927890485428915e-03 0.0000000000000000e+00  -2.3825752282277866e-03 -3.1381752120563694e-03 0.0000000000000000e+00  -2.5689914321475010e-03 -2.2906182470376702e-03 0.0000000000000000e+00  -2.2874591160113923e-03 -3.1407591304049736e-03 0.0000000000000000e+00  -2.3161907165267742e-03 -2.5827453763556099e-03 0.0000000000000000e+00  -3.3784623486889536e-03 -2.8021524440906449e-03 0.0000000000000000e+00  -3.2097822408373145e-03 -2.3880808006300556e-03 0.0000000000000000e+00  -3.0267337034128572e-03 -2.4189354755454438e-03 0.0000000000000000e+00  -3.1738690665177403e-03 -3.5144024646836707e-03 0.0000000000000000e+00  -2.8919190252246147e-03 -3.5077423793217384e-03 0.0000000000000000e+00  -2.6697127622860592e-03 -2.2921144853552656e-03 0.0000000000000000e+00  -2.3699316927584392e