<?xml version="1.0"?>
<VTKFile type="UnstructuredGrid"  version="0.1"  >
<UnstructuredGrid>
<Piece  NumberOfPoints="1380" NumberOfCells="2630">
<Points>
<DataArray  type="Float64"  NumberOfComponents="3"  format="ascii">-1 -1 0  1 -1 0  1 1 0  -1 1 0  0 -1 0  1 0 0  0 1 0  -1 0 0  0 0 0  -1 -0.5 0  -0.5 -1 0  -0.5 1 0  -1 0.5 0  1 -0.5 0  0.5 -1 0  1 0.5 0  0.5 1 0  0.4166666666666666 -0.4166666666666667 0  -0.4166666666666667 0.4166666666666667 0  -0.25 -0.5 0  0.5 0.25 0  -0.4861111111111112 -0.06944444444444445 0  0.0732758620689655 0.507183908045977 0  -0.625 -0.625 0  0.625 0.625 0  0.7380952380952381 -0.25 0  -0.7099116161616161 0.2105429292929293 0  -0.25 0.7380952380952381 0  0.105392156862745 -0.6348039215686275 0  0.6770833333333334 -0.6770833333333333 0  -0.6770833333333334 0.6770833333333334 0  0.3472222222222222 -0.06944444444444446 0  -0.7264957264957265 -0.3044871794871795 0  0.3141940982507127 0.7297313660835709 0  0.02049587951122483 -0.3227479397556124 0  -0.2690972222222223 0.1475694444444444 0  0.3859500089908372 -0.7274430156831472 0  -0.2228477945123298 -0.1761765495248019 0  0.2182539682539683 0.1884920634920635 0  0.75 0.375 0  -0.145442219440968 -0.7602211097204841 0  0.7088913690476191 0.0427827380952381 0  -0.75 -1 0  -1 -0.75 0  1 0.75 0  0.75 1 0  -0.7439982703698937 -0.04614153195464455 0  -0.4609235096577606 -0.3356498099556895 0  0.4063134471431929 0.4895621842856023 0  0.25 -1 0  -0.25 -1 0  -0.75 1 0  0.75 -1 0  -1 -0.25 0  -1 0.25 0  1 -0.25 0  -0.25 1 0  1 -0.75 0  -1 0.75 0  0.25 1 0  1 0.25 0  -0.4041423272138783 -0.7597141090712928 0  0.06500839607911253 0.7578103030529481 0  -0.1572801182352047 0.3838997021864289 0  -0.6528005242053915 0.4409494757946086 0  -0.4930160984848485 0.1544744318181818 0  -0.4732142857142858 0.7752976190476191 0  0.6398809523809523 -0.4538690476190476 0  0.5166054117396399 -0.2161233620965164 0  -0.002273787244753427 0.2232363985975174 0  0.1500564496765022 -0.1524955293952667 0  0.2016720420046758 -0.4410343282803009 0  -0.08495178036419618 0.6274139771124571 0  -0.8367311471133162 0.3642591720794645 0  -0.8333333333333334 -0.625 0  -0.594323836800685 -0.8231079456002283 0  -0.4466957714776065 -0.5349126855671806 0  0.8125 0.5625 0  0.78125 0.78125 0  0.5091392650016769 0.7947130883338923 0  0.125 -0.8382681931833136 0  -0.8184523809523809 -0.8184523809523809 0  -0.07781530426104531 -0.5819319697006881 0  0.5085055196703295 0.04967610411902112 0  0.2918471072074933 -0.276017202318847 0  0.5120763537765269 -0.5898771553229597 0  0.625 -0.8585349462365591 0  0.8158532234335381 -0.8158532234335381 0  -0.5198088446315396 0.5739411553684605 0  -0.8585349462365591 0.625 0  -0.8150493805516597 0.8156205699829586 0  0.8585349462365591 -0.625 0  -0.2688268348649726 0.5439331383603209 0  0.8242100426758139 -0.4436043596336612 0  0.5833756314287952 0.4479378157143976 0  0.8690476190476191 -0.125 0  -0.125 0.8690476190476191 0  -0.8692745600729823 0.125 0  0.8696725120759167 0.125 0  -0.625 0.8711516477451908 0  0.2339522463269718 0.3879558377955778 0  0.2453709502295031 0.5655822922838026 0  0.1730610651637797 0.02021709580868947 0  0.3245402594056757 -0.5644672020485209 0  -0.7291666666666666 -0.4816595441595442 0  -1 -0.375 0  -0.5811140848639904 -0.2127276307675001 0  0.673332592838314 0.2158348143233718 0  0.375 1 0  -0.5714768890989919 0.2985103444040069 0  -1 -0.125 0  -0.8453692574786325 -0.1875 0  -0.3144549134065865 -0.02408675326008025 0  -0.2898414972096258 -0.3336092734780093 0  -0.1075052092206287 -0.4224330421314983 0  -0.05043970703604117 -0.1652278959397459 0  0.6459672950297897 -0.1113415301525317 0  0.4645210271029513 0.6398480556579343 0  0.3512863754411909 0.0937979496253573 0  -0.6063160985568274 0.03891469652249891 0  -0.3428819444444445 0.8690476190476191 0  0.625 1 0  -0.1602164796159982 0.02697860906625157 0  0.04648110064133829 -0.4808416424239687 0  1 0.875 0  -0.3836102479201657 0.6484936449177356 0  -0.3776011723096096 0.263078478984336 0  -0.6024978259969829 -0.3949628096211138 0  0.125 1 0  0.2010781308272777 0.8456221018461906 0  0.2822509696388829 -0.845902544691141 0  -0.3285533674953515 -0.6289773550938936 0  0.3461306793221754 0.278777492464833 0  0.4737475672408696 -0.8508448959534423 0  0.2384632828836344 -0.7029523187242811 0  -0.004777287059791593 0.3759269695907358 0  -0.8499735021850066 -0.3912320205328522 0  0.1222536293721587 0.2963971539625205 0  -0.3769456520999688 -0.203572526805711 0  -0.2749617205755651 -0.8464290792698902 0  0.004805888512766143 -0.747174355248311 0  -0.125 -1 0  -0.06001061822252458 -0.8724007765244854 0  0.875 0.4375 0  0.854421179608893 0.271342359217786 0  0.875 1 0  -0.1499861095763589 0.2358309656934888 0  0.3381943639137225 0.8663061796405532 0  -0.7853090110442228 0.4998412775277108 0  0.7398165998560814 -0.5535192694951373 0  0.1580042122341573 -0.3100246140259917 0  -0.7291666666666667 -0.7142857142857142 0  -0.375 -1 0  0.6483368386154684 0.8514905990110488 0  -0.1295370103291928 -0.2826118305021242 0  0.07458201853700455 0.1123894386563915 0  0.6146465857036327 -0.3161203659316075 0  0.5551898493894731 -0.740296118159085 0  0.375 -1 0  0.482702798370208 -0.084133350091034 0  0.87890625 0.68359375 0  -0.05917195534525846 0.4971092425697621 0  0.1260710309213975 0.6343750312956699 0  0.8690476190476191 -0.3077066815262848 0  -0.2912010232560567 0.3668168386732139 0  -0.875 1 0  -1 0.875 0  1 -0.875 0  0.875 -1 0  -0.8689564281364567 -0.006189266075306407 0  -0.7449425635110547 0.08458938160051771 0  -0.7150266761936593 -0.1739444581417552 0  -0.5260034831318311 -0.711099823962112 0  -0.4724626808827322 -0.871722230709409 0  0.4734436795977052 0.377714794132168 0  -0.875 -1 0  -1 -0.875 0  0.6927189078571988 0.5156567235715964 0  -0.3742497615796874 -0.4296005251260107 0  -0.1969436423297711 -0.6387157229772615 0  -0.6179496409766825 -0.08933356056510935 0  -0.424405057115988 0.04452428810878029 0  -0.08479048335844169 0.1279607007132633 0  0.003830300099055113 0.8712085230656206 0  0.8748778838820267 -1.379218479898026e-05 0  -0.375 1 0  -0.625 1 0  1 0.125 0  -0.125 1 0  1 -0.375 0  1 -0.125 0  1 -0.625 0  0.625 -1 0  0.125 -1 0  -0.625 -1 0  -1 -0.625 0  -1 0.125 0  -1 0.375 0  -1 0.625 0  1 0.375 0  1 0.625 0  0.6325660748712082 0.3335187599557389 0  -0.06420945895056573 0.7549874027425891 0  -0.8769015540914771 0.2478802253893416 0  0.871875 0.871875 0  -0.6868091492840067 0.3270978624973681 0  -0.5363597469565949 0.412994850055505 0  -0.6803734992638302 0.5574295000651103 0  -0.7076253581162534 -0.8803439094224437 0  -0.8778089002295137 -0.5106896447504627 0  -0.3860184984222981 0.530566778071246 0  0.6109900617121508 0.1128453077697081 0  0.3896945134930274 -0.1915382873255086 0  0.7605656944697778 -0.06822134873122943 0  0.3576151269893478 0.5948388411612135 0  -0.5689902680792265 -0.5143596830118065 0  0.6262446286847614 -0.5735657901943212 0  0.2030558252325225 -0.5625263842513452 0  0.6123273142928579 0.7407533260723429 0  0.4016460890123554 -0.3042863223111857 0  -0.59039693199147 0.7578418819188018 0  0.7276932493917544 -0.3705808024528924 0  0.5222536818742854 -0.4713886230400014 0  -0.5101986527137737 0.8848365765607674 0  0.510560172809238 0.5356013299918891 0  -0.3603569195756083 0.75823710606415 0  0.1967279277813232 0.728226870058472 0  -0.6086880986371127 0.1545624071548516 0  -0.38105366729386 0.1511189987807864 0  -0.2944659463671584 -0.7359061804869591 0  0.5060729154966499 -0.3475227845833823 0  -0.09281616240412746 -0.06197858250969457 0  0.7649739583333334 0.6673177083333334 0  0.7628906249999999 0.890234375 0  -0.2666864184909611 0.2585504071132311 0  0.3635064892129658 0.3878003602709461 0  -0.2339409722222222 0.8901937905844155 0  -0.1718792125974916 -0.8957733325456778 0  0.1001768566329531 0.4023510017391879 0  0.3120260172693757 -0.4540546875576884 0  0.7804062804433681 0.1896628610854537 0  0.4087715451998049 0.187961780041608 0  -0.1584963477271457 0.5451611892421655 0  -0.8926817849258324 0.463022006336401 0  0.2338091473445219 -0.07576267331277289 0  0.08171112182813692 -0.2349087687359925 0  0.04635385178956847 -0.1044635073718474 0  -0.4377391632114205 -0.6448874471423088 0  -0.1907678351227189 0.6480215912813945 0  0.300605946475244 0.4741444604171038 0  -0.2145033720757486 -0.06751709909419711 0  0.6069191921170397 -0.005492331448357812 0  0.0214718770761248 0.6032397936031719 0  0.5476675683364878 0.8992752415326501 0  0.4387475014316537 0.9093708953002239 0  -0.4932997685306436 -0.4381009159993523 0  0.2515197695339056 -0.1791673369138964 0  -0.7291666666666667 -0.6088789682539681 0  -0.9166666666666667 -0.6875 0  0.620579540363709 -0.2122431523583302 0  -0.484950136419973 0.6719440339397442 0  0.2857044415400258 0.0137589173127316 0  -0.8945708364098356 -0.288306105327986 0  0.4043102720140535 0.7842914560451557 0  0.04123256238752064 -0.9026968245801402 0  0.2003676884403109 -0.9091888601740487 0  0.1068775558538842 -0.7373377130403223 0  -0.4804566783514427 -0.1763307203045643 0  0.108286342087769 -0.3993789328997278 0  -0.191883080105361 -0.3640821726430649 0  -0.07025064492006244 0.2984876656890053 0  -0.7039324641409584 0.788312126296613 0  -0.7311286585775438 0.8932502354831682 0  0.5171409396884947 0.1503852691889257 0  0.4229392823658633 -0.003216522184234835 0  -0.5621736087218259 -0.919558629836806 0  -0.626474064879544 -0.7266572613636506 0  0.2446828746617422 0.2867616783302419 0  0.1759429608742923 0.4776611759306416 0  -0.3468240303741654 -0.5260416435617549 0  -0.7465808808425306 0.4069574477998361 0  -0.7819962170660292 0.2802441065650652 0  -0.3742623214119594 -0.8547800509641984 0  0.1014498009713561 0.8506721983266377 0  0.4285217620918213 -0.5230190595570253 0  0.4091738370487775 -0.6256346204225141 0  0.78125 0.46875 0  0.90625 0.53125 0  -0.4791801348852565 0.2553992655702126 0  0.7843318610782772 -0.7086046956885941 0  0.8909728264971901 -0.7355183796514634 0  0.7041908166528879 -0.7830649143180282 0  0.7311821352
[...]
<PointData  Vectors="f_22"> 
<DataArray  type="Float64"  Name="f_22"  NumberOfComponents="3" format="ascii">-2.8564342377446184e-03 -2.8986717853211347e-03 0.0000000000000000e+00  -2.8564342377446184e-03 -2.8986717853211347e-03 0.0000000000000000e+00  -2.8564342377446184e-03 -2.8986717853211347e-03 0.0000000000000000e+00  -2.8564342377446184e-03 -2.8986717853211347e-03 0.0000000000000000e+00  -2.8564334182933108e-03 -2.9057599963667842e-03 0.0000000000000000e+00  -2.8639179633285325e-03 -2.8986709695394569e-03 0.0000000000000000e+00  -2.8564334182933108e-03 -2.9057599963667842e-03 0.0000000000000000e+00  -2.8639179633285325e-03 -2.8986709695394569e-03 0.0000000000000000e+00  -2.8639174941980576e-03 -2.9057615294361978e-03 0.0000000000000000e+00  -2.8168912894954530e-03 -2.8986711622913269e-03 0.0000000000000000e+00  -2.8564343224743308e-03 -2.8589288447322318e-03 0.0000000000000000e+00  -2.8564343224743308e-03 -2.8589288447322318e-03 0.0000000000000000e+00  -2.9034614877580631e-03 -2.8986703965494442e-03 0.0000000000000000e+00  -2.8168912894954530e-03 -2.8986711622913269e-03 0.0000000000000000e+00  -2.8564330160121658e-03 -2.9455058403825528e-03 0.0000000000000000e+00  -2.9034614877580631e-03 -2.8986703965494442e-03 0.0000000000000000e+00  -2.8564330160121658e-03 -2.9455058403825528e-03 0.0000000000000000e+00  -2.8193342693457156e-03 -2.9449472902456364e-03 0.0000000000000000e+00  -2.9029535692234772e-03 -2.8613202812745797e-03 0.0000000000000000e+00  -2.8168923172539198e-03 -2.8741129092628836e-03 0.0000000000000000e+00  -2.8934286346538316e-03 -2.9455054474753972e-03 0.0000000000000000e+00  -2.8544609349452237e-03 -2.8591243971663009e-03 0.0000000000000000e+00  -2.9033649879126331e-03 -2.9155461229383854e-03 0.0000000000000000e+00  -2.8187555781754962e-03 -2.8608685160383725e-03 0.0000000000000000e+00  -2.8987336385212208e-03 -2.9408532282879274e-03 0.0000000000000000e+00  -2.8322143727701507e-03 -2.9315365777285150e-03 0.0000000000000000e+00  -2.8897167330596166e-03 -2.8658334737772760e-03 0.0000000000000000e+00  -2.8893595070140017e-03 -2.8741132854997130e-03 0.0000000000000000e+00  -2.8191778565592857e-03 -2.9196401071800559e-03 0.0000000000000000e+00  -2.8214438720129218e-03 -2.9371041301253886e-03 0.0000000000000000e+00  -2.8949570393533883e-03 -2.8635855788965653e-03 0.0000000000000000e+00  -2.8544616678960011e-03 -2.9422513867567164e-03 0.0000000000000000e+00  -2.8269588881511022e-03 -2.8671187659863331e-03 0.0000000000000000e+00  -2.8901959906564309e-03 -2.9402915691436569e-03 0.0000000000000000e+00  -2.8254076236683846e-03 -2.9085396893368128e-03 0.0000000000000000e+00  -2.8828790299696471e-03 -2.8721787119100495e-03 0.0000000000000000e+00  -2.8250271141181922e-03 -2.9439992582408646e-03 0.0000000000000000e+00  -2.8406067511467722e-03 -2.8770373886596481e-03 0.0000000000000000e+00  -2.8874411458812131e-03 -2.9323707239483137e-03 0.0000000000000000e+00  -2.9015987243280607e-03 -2.9303201492203255e-03 0.0000000000000000e+00  -2.8278393370343444e-03 -2.8863005395207341e-03 0.0000000000000000e+00  -2.8696839113949968e-03 -2.9343489111601177e-03 0.0000000000000000e+00  -2.8564335868710915e-03 -2.8691027759067548e-03 0.0000000000000000e+00  -2.8269249067602383e-03 -2.8986717643190042e-03 0.0000000000000000e+00  -2.8881360562422265e-03 -2.8986704937091052e-03 0.0000000000000000e+00  -2.8564339397075421e-03 -2.9303181323434534e-03 0.0000000000000000e+00  -2.8576255488517136e-03 -2.8685764368602696e-03 0.0000000000000000e+00  -2.8243807584216684e-03 -2.8596886064464352e-03 0.0000000000000000e+00  -2.9035606583974805e-03 -2.9446728807780631e-03 0.0000000000000000e+00  -2.8564334043269333e-03 -2.9353335259755080e-03 0.0000000000000000e+00  -2.8564333599721929e-03 -2.8741144715733317e-03 0.0000000000000000e+00  -2.8564335868710915e-03 -2.8691027759067548e-03 0.0000000000000000e+00  -2.8564339397075421e-03 -2.9303181323434534e-03 0.0000000000000000e+00  -2.8322141746654384e-03 -2.8986715796656061e-03 0.0000000000000000e+00  -2.8934287279650563e-03 -2.8986708730725837e-03 0.0000000000000000e+00  -2.8322141746654384e-03 -2.8986715796656061e-03 0.0000000000000000e+00  -2.8564333599721929e-03 -2.8741144715733317e-03 0.0000000000000000e+00  -2.8269249067602383e-03 -2.8986717643190042e-03 0.0000000000000000e+00  -2.8881360562422265e-03 -2.8986704937091052e-03 0.0000000000000000e+00  -2.8564334043269333e-03 -2.9353335259755080e-03 0.0000000000000000e+00  -2.8934287279650563e-03 -2.8986708730725837e-03 0.0000000000000000e+00  -2.8277936288616549e-03 -2.8619282173844886e-03 0.0000000000000000e+00  -2.8873109526439660e-03 -2.9144672879860716e-03 0.0000000000000000e+00  -2.9019481598765735e-03 -2.8848079509326318e-03 0.0000000000000000e+00  -2.9034081059374226e-03 -2.8621841198561968e-03 0.0000000000000000e+00  -2.8836775443983804e-03 -2.8590163540749189e-03 0.0000000000000000e+00  -2.8854070706487104e-03 -2.8593797862562355e-03 0.0000000000000000e+00  -2.8178848459750111e-03 -2.9398822080432866e-03 0.0000000000000000e+00  -2.8359055344521038e-03 -2.9452606487316664e-03 0.0000000000000000e+00  -2.8909638708671244e-03 -2.9054533937723347e-03 0.0000000000000000e+00  -2.8435443776056056e-03 -2.9250350472782506e-03 0.0000000000000000e+00  -2.8183208167626142e-03 -2.9307019255983193e-03 0.0000000000000000e+00  -2.8985792694784709e-03 -2.8942188014413799e-03 0.0000000000000000e+00  -2.9011322367474934e-03 -2.8778844149011011e-03 0.0000000000000000e+00  -2.8187552414389088e-03 -2.8775041433415538e-03 0.0000000000000000e+00  -2.8341633602307682e-03 -2.8597814098584510e-03 0.0000000000000000e+00  -2.8167429806295989e-03 -2.8601257727435925e-03 0.0000000000000000e+00  -2.9018997991357757e-03 -2.9233166353147969e-03 0.0000000000000000e+00  -2.8847418038700015e-03 -2.9269361478165760e-03 0.0000000000000000e+00  -2.8832051164238847e-03 -2.9453859640576952e-03 0.0000000000000000e+00  -2.8358484030466128e-03 -2.9220580272435641e-03 0.0000000000000000e+00  -2.8336565772983779e-03 -2.8758625680529071e-03 0.0000000000000000e+00  -2.8173655375017576e-03 -2.8951788644740674e-03 0.0000000000000000e+00  -2.8706013765295670e-03 -2.9453949084064612e-03 0.0000000000000000e+00  -2.8295931687001069e-03 -2.9387310868148370e-03 0.0000000000000000e+00  -2.8175629209831301e-03 -2.9453388349070203e-03 0.0000000000000000e+00  -2.8381893541058975e-03 -2.9408526689752926e-03 0.0000000000000000e+00  -2.8333773113717424e-03 -2.9229166931482430e-03 0.0000000000000000e+00  -2.9014352855493992e-03 -2.8587919783790846e-03 0.0000000000000000e+00  -2.8987339130827731e-03 -2.8804057114445742e-03 0.0000000000000000e+00  -2.8807366924020468e-03 -2.8754952936372530e-03 0.0000000000000000e+00  -2.8187550873007656e-03 -2.9176263068190242e-03 0.0000000000000000e+00  -2.9025330994074342e-03 -2.8722056160741562e-03 0.0000000000000000e+00  -2.8182280206414906e-03 -2.9219064322108545e-03 0.0000000000000000e+00  -2.9034930795583968e-03 -2.9431102860715042e-03 0.0000000000000000e+00  -2.8470673377660508e-03 -2.9162764620752827e-03 0.0000000000000000e+00  -2.8740534286543357e-03 -2.8889251250766505e-03 0.0000000000000000e+00  -2.8801968010377871e-03 -2.8816831582210776e-03 0.0000000000000000e+00  -2.8801969745363663e-03 -2.9161954771762823e-03 0.0000000000000000e+00  -2.8737823154026351e-03 -2.8608683649256074e-03 0.0000000000000000e+00  -2.9020975652578628e-03 -2.9338751624131292e-03 0.0000000000000000e+00  -2.9017796868798227e-03 -2.9349224322670025e-03 0.0000000000000000e+00  -2.8666588065447401e-03 -2.9276452653157685e-03 0.0000000000000000e+00  -2.8170232762816791e-03 -2.9409499124270913e-03 0.0000000000000000e+00  -2.8171793615246483e-03 -2.8673349441296933e-03 0.0000000000000000e+00  -2.8216178508736586e-03 -2.8986709897075411e-03 0.0000000000000000e+00  -2.8362914208729193e-03 -2.8594331717331982e-03 0.0000000000000000e+00  -2.8902426760419255e-03 -2.9374068857488948e-03 0.0000000000000000e+00  -2.8564332998644911e-03 -2.9435674207319556e-03 0.0000000000000000e+00  -2.8972881724597540e-03 -2.8592255258548900e-03 0.0000000000000000e+00  -2.8470681889023442e-03 -2.8986701199317372e-03 0.0000000000000000e+00  -2.8392387269164949e-03 -2.8788696797058355e-03 0.0000000000000000e+00  -2.8606362272984658e-03 -2.8680287513049730e-03 0.0000000000000000e+00  -2.8245405557032746e-03 -2.8702017082373448e-03 0.0000000000000000e+00  -2.8190734546875399e-03 -2.8912187695763632e-03 0.0000000000000000e+00  -2.8419534252078107e-03 -2.8988858112136045e-03 0.0000000000000000e+00  -2.8488563855635141e-03 -2.9394616715735368e-03 0.0000000000000000e+00  -2.8977577005301564e-03 -2.9456313083549403e-03 0.0000000000000000e+00  -2.8763285806065685e-03 -2.9424636574999384e-03 0.0000000000000000e+00  -2.8691693218960883e-03 -2.8601582770230757e-03 0.0000000000000000e+00  -2.8740538697829428e-03 -2.8657750960293148e-03 0.0000000000000000e+00  -2.8564325657641841e-03 -2.9408533678291749e-03 0.0000000000000000e+00  -2.8675691930434210e-03 -2.8844423295843803e-03 0.0000000000000000e+00  -2.8171950861163491e-03 -2.9120228814073692e-03 0.0000000000000000e+00  -2.8732820082675282e-03 -2.8986697705832148e-03 0.0000000000000000e+00  -2.8971504979035056e-03 -2.8630573086761003e-03 0.0000000000000000e+00  -2.8945483549230907e-03 -2.8634188744530976e-03 0.0000000000000000e+00  -2.8204399583933882e-03 -2.8600323897379908e-03 0.0000000000000000e+00  -2.8564336033053942e-03 -2.9220567730566614e-03 0.0000000000000000e+00  -2.8770435845321446e-03 -2.9306394608474519e-03 0.0000000000000000e+00  -2.8367199612401488e-03 -2.9380057928854275e-03 0.0000000000000000e+00  -2.8189223391259055e-03 -2.8668748274761255e-03 0.0000000000000000e+00  -2.8958183545048158e-03 -2.9421936871863452e-03 0.0000000000000000e+00  -2.8372898315554588e-03 -2.9456503111350146e-03 0.0000000000000000e+00  -2.8231680146837382e-03 -2.9342925253150252e-03 0.0000000000000000e+00  -2.9016360376745653e-03 -2.9051118289867045e-03 0.0000000000000000e+00  -2.8206478281434470e-03 -2.8794037488888606e-03 0.0000000000000000e+00  -2.8971380039771203e-03 -2.9217254056929211e-03 0.0000000000000000e+00  -2.8373459549292019e-03 -2.8634596011069733e-03 0.0000000000000000e+00  -2.8367799526394740e-03 -2.8716062483560862e-03 0.0000000000000000e+00  -2.8266768320170830e-03 -2.9064135328323946e-03 0.0000000000000000e+00  -2.8564330503267482e-03 -2.8889261189880095e-03 0.0000000000000000e+00  -2.8398401011649451e-03 -2.8975846513536450e-03 0.0000000000000000e+00  -2.9033598471256109e-03 -2.9155067966534043e-03 0.0000000000000000e+00  -2.8952273399467125e-03 -2.9181499697263379e-03 0.0000000000000000e+00  -2.8564331843554847e-03 -2.9155052011732270e-03 0.0000000000000000e+00  -2.8921518610038506e-03 -2.8857246684514150e-03 0.0000000000000000e+00  -2.8744090557384781e-03 -2.9417581074922781e-03 0.0000000000000000e+00  -2.9034625644195305e-03 -2.8724156239749855e-03 0.0000000000000000e+00  -2.8168755542387425e-03 -2.9313631465938315e-03 0.0000000000000000e+00  -2.8264779440603511e-03 -2.9259512449864530e-03 0.0000000000000000e+00  -2.8240031968233114e-03 -2.8673353633527155e-03 0.0000000000000000e+00  -2.8564338559055112e-03 -2.8635807422265481e-03 0.0000000000000000e+00  -2.8763018292387271e-03 -2.9392958362858849e-03 0.0000000000000000e+00  -2.8289603347289717e-03 -2.8883388131531154e-03 0.0000000000000000e+00  -2.8786553046102185e-03 -2.9157151922184587e-03 0.0000000000000000e+00  -2.8259583601340822e-03 -2.9414768141982741e-03 0.0000000000000000e+00  -2.8260866315389242e-03 -2.9442443907405987e-03 0.0000000000000000e+00  -2.8564332998644911e-03 -2.9435674207319556e-03 0.0000000000000000e+00  -2.8524787417721184e-03 -2.9456337300473689e-03 0.0000000000000000e+00  -2.8944170116679937e-03 -2.9149975440837580e-03 0.0000000000000000e+00  -2.9034923669489670e-03 -2.8976997426688228e-03 0.0000000000000000e+00  -2.8981263759909771e-03 -2.9221879326097886e-03 0.0000000000000000e+00  -2.8266769593826282e-03 -2.9162757710104121e-03 0.0000000000000000e+00  -2.9012470567340094e-03 -2.8700739265942010e-03 0.0000000000000000e+00  -2.8564342534031706e-03 -2.8823774595858487e-03 0.0000000000000000e+00  -2.8732820082675282e-03 -2.8986697705832148e-03 0.0000000000000000e+00  -2.8401558381485944e-03 -2.8986719959844709e-03 0.0000000000000000e+00  -2.8564331843554847e-03 -2.9155052011732270e-03 0.0000000000000000e+00  -2.8630756966239557e-03 -2.8816462655857473e-03 0.0000000000000000e+00  -2.8751552183269441e-03 -2.8686584660323972e-03 0.0000000000000000e+00  -2.8408787182994293e-03 -2.8662199113130039e-03 0.0000000000000000e+00  -2.8237632448805802e-03 -2.8587846695864870e-03 0.0000000000000000e+00  -2.8397612881096001e-03 -2.8593973515183826e-03 0.0000000000000000e+00  -2.9017088014946439e-03 -2.9456505792862476e-03 0.0000000000000000e+00  -2.8564342534031706e-03 -2.8823774595858487e-03 0.0000000000000000e+00  -2.8401558381485944e-03 -2.8986719959844709e-03 0.0000000000000000e+00  -2.9032250704027866e-03 -2.9357925595704017e-03 0.0000000000000000e+00  -2.8187669543978441e-03 -2.8636268058491923e-03 0.0000000000000000e+00  -2.8193580664909357e-03 -2.8799976120881970e-03 0.0000000000000000e+00  -2.8517824998031799e-03 -2.8605830624534559e-03 0.0000000000000000e+00  -2.8699165311939999e-03 -2.8609773975236084e-03 0.0000000000000000e+00  -2.8805572638499607e-03 -2.8942421197675782e-03 0.0000000000000000e+00  -2.8737720703442111e-03 -2.9062816367612194e-03 0.0000000000000000e+00  -2.8639154235432715e-03 -2.9155214832290179e-03 0.0000000000000000e+00  -2.8564338559055112e-03 -2.8635807422265481e-03 0.0000000000000000e+00  -2.8564330891055522e-03 -2.8608682507167277e-03 0.0000000000000000e+00  -2.8801961999973280e-03 -2.8986713318643826e-03 0.0000000000000000e+00  -2.8564330503267482e-03 -2.8889261189880095e-03 0.0000000000000000e+00  -2.8216178508736586e-03 -2.8986709897075411e-03 0.0000000000000000e+00  -2.8470681889023442e-03 -2.8986701199317372e-03 0.0000000000000000e+00  -2.8187551864091880e-03 -2.8986704092921556e-03 0.0000000000000000e+00  -2.8564325657641841e-03 -2.9408533678291749e-03 0.0000000000000000e+00  -2.8564336033053942e-03 -2.9220567730566614e-03 0.0000000000000000e+00  -2.8564330891055522e-03 -2.8608682507167277e-03 0.0000000000000000e+00  -2.8187551864091880e-03 -2.8986704092921556e-03 0.0000000000000000e+00  -2.8801961999973280e-03 -2.8986713318643826e-03 0.0000000000000000e+00  -2.9015987135058222e-03 -2.8986711252133399e-03 0.0000000000000000e+00  -2.8987341723976886e-03 -2.8986713064959304e-03 0.0000000000000000e+00  -2.9015987135058222e-03 -2.8986711252133399e-03 0.0000000000000000e+00  -2.8987341723976886e-03 -2.8986713064959304e-03 0.0000000000000000e+00  -2.8995448213299216e-03 -2.9403708542753951e-03 0.0000000000000000e+00  -2.8876110482097244e-03 -2.8970156915425031e-03 0.0000000000000000e+00  -2.8932428066333962e-03 -2.8826067137032868e-03 0.0000000000000000e+00  -2.8736887725124586e-03 -2.9159098351562206e-03 0.0000000000000000e+00  -2.8991652866842345e-03 -2.8642087839198319e-03 0.0000000000000000e+00  -2.9028635569643200e-03 -2.8588063386409505e-03 0.0000000000000000e+00  -2.9020863105523871e-03 -2.8637925613772437e-03 0.0000000000000000e+00  -2.8408051483301945e-03 -2.8656658330400583e-03 0.0000000000000000e+00  -2.8167905453199828e-03 -2.8827181743374983e-03 0.0000000000000000e+00  -2.9029012290207779e-03 -2.8629157234764369e-03 0.0000000000000000e+00  -2.8787124372316904e-03 -2.9416885361275252e-03 0.0000000000000000e+00  -2.8387577040776928e-03 -2.9441361198946320e-03 0.0000000000000000e+00  -2.8546251172911008e-03 -2.9292026396282984e-03 0.0000000000000000e+00  -2.9004548739081960e-03 -2.9427800769917796e-03 0.0000000000000000e+00  -2.8167676023781430e-03 -2.8591800627872435e-03 0.0000000000000000e+00  -2.8171852257449174e-03 -2.9407742095454957e-03 0.0000000000000000e+00  -2.8169932903576128e-03 -2.9308435254158426e-03 0.0000000000000000e+00  -2.8890899125779998e-03 -2.9416122429090637e-03 0.0000000000000000e+00  -2.8269761220394620e-03 -2.9445329774747202e-03 0.0000000000000000e+00  -2.8873074299344608e-03 -2.8596700789541049e-03 0.0000000000000000e+00  -2.8218988074364937e-03 -2.9325668588941183e-03 0.0000000000000000e+00  -2.8174017359970157e-03 -2.9451509834364062e-03 0.0000000000000000e+00  -2.8719954860314634e-03 -2.8588376323767034e-03 0.0000000000000000e+00  -2.9027727388541446e-03 -2.9453639552946579e-03 0.0000000000000000e+00  -2.8872648602074904e-03 -2.8645333580816562e-03 0.0000000000000000e+00  -2.8903434211401758e-03 -2.9301888395914947e-03 0.0000000000000000e+00  -2.8836866923150298e-03 -2.8602404077788064e-03 0.0000000000000000e+00  -2.8832907872795937e-03 -2.8632094793872268e-03 0.0000000000000000e+00  -2.8257194756342516e-03 -2.8697761931535805e-03 0.0000000000000000e+00  -2.8234872768018318e-03 -2.9454287287861191e-03 0.0000000000000000e+00  -2.8554725872609594e-03 -2.8931674936122707e-03 0.0000000000000000e+00  -2.8957391962940730e-03 -2.9287297886127555e-03 0.0000000000000000e+00  -2.8712850008733729e-03 -2.9289544375094160e-03 0.0000000000000000e+00  -2.8941671056159513e-03 -2.8724169657457729e-03 0.0000000000000000e+00  -2.9020920158426560e-03 -2.9430611225608775e-03 0.0000000000000000e+00  -2.8712887308219937e-03 -2.8758196286226760e-03 0.0000000000000000e+00  -2.8427122834233142e-03 -2.8830015769634944e-03 0.0000000000000000e+00  -2.9025702478163648e-03 -2.9189886006282272e-03 0.0000000000000000e+00  -2.8178795573677510e-03 -2.9401478195128809e-03 0.0000000000000000e+00  -2.8875655417644258e-03 -2.9270311703452410e-03 0.0000000000000000e+00  -2.8873867251735979e-03 -2.9447422622992060e-03 0.0000000000000000e+00  -2.9024954351302697e-03 -2.8846560200873959e-03 0.0000000000000000e+00  -2.9036032992513353e-03 -2.8845514843850806e-03 0.0000000000000000e+00  -2.8536081809365488e-03 -2.9338623937556932e-03 0.0000000000000000e+00  -2.8338222801641147e-03 -2.9166375980586947e-03 0.0000000000000000e+00  -2.8497678771669931e-03 -2.9120067925376960e-03 0.0000000000000000e+00  -2.8196548206466119e-03 -2.8604436754139889e-03 0.0000000000000000e+00  -2.8971849831819700e-03 -2.8807253443616418e-03 0.0000000000000000e+00  -2.9036219864232659e-03 -2.9393653345401657e-03 0.0000000000000000e+00  -2.8547224092237509e-03 -2.8779745995170195e-03 0.0000000000000000e+00  -2.8631702346583734e-03 -2.9419165699135974e-03 0.0000000000000000e+00  -2.9000102806029291e-03 -2.9086716814954684e-03 0.0000000000000000e+00  -2.8700878432093547e-03 -2.9444922487659028e-03 0.0000000000000000e+00  -2.8687415948714838e-03 -2.9453848675468279e-03 0.0000000000000000e+00  -2.8184310639103780e-03 -2.8590135867333096e-03 0.0000000000000000e+00  -2.8402428500780450e-03 -2.9354668735176769e-03 0.0000000000000000e+00  -2.8181449974794548e-03 -2.8673356448719548e-03 0.0000000000000000e+00  -2.8221085775902593e-03 -2.8875902936455820e-03 0.0000000000000000e+00  -2.8363451258201643e-03 -2.9411237817786647e-03 0.0000000000000000e+00  -2.8953719521495245e-03 -2.8591445417654542e-03 0.0000000000000000e+00  -2.8657855996805405e-03 -2.9382713189516768e-03 0.0000000000000000e+00  -2.8284244491476088e-03 -2.8847877915382019e-03 0.0000000000000000e+00  -2.8843996561211029e-03 -2.9446140516276912e-03 0.0000000000000000e+00  -2.8435806408952219e-03 -2.9113214442637648e-03 0.0000000000000000e+00  -2.8444035647396280e-03 -2.9305674646415191e-03 0.0000000000000000e+00  -2.8258378438252301e-03 -2.9198265817366171e-03 0.0000000000000000e+00  -2.8405894289598261e-03 -2.8592280496116292e-03 0.0000000000000000e+00  -2.8201992442893429e-03 -2.9200025515886950e-03 0.0000000000000000e+00  -2.8223279791544180e-03 -2.8805942228682349e-03 0.0000000000000000e+00  -2.8972867352060417e-03 -2.8962004268172866e-03 0.0000000000000000e+00  -2.8839403723547436e-03 -2.8653956242382910e-03 0.0000000000000000e+00  -2.8708862259105108e-03 -2.8674957145059764e-03 0.0000000000000000e+00  -2.8832062724457271e-03 -2.9452517033955678e-03 0.0000000000000000e+00  -2.8634798334045853e-03 -2.9450930110642868e-03 0.0000000000000000e+00  -2.8457309597922096e-03 -2.8590643470385157e-03 0.0000000000000000e+00  -2.8249659695902623e