<?xml version="1.0"?>
<VTKFile type="UnstructuredGrid"  version="0.1"  >
<UnstructuredGrid>
<Piece  NumberOfPoints="1331" NumberOfCells="6000">
<Points>
<DataArray  type="Float64"  NumberOfComponents="3"  format="ascii">-3.141592653589793 -3.141592653589793 -3.141592653589793  -2.513274122871834 -3.141592653589793 -3.141592653589793  -1.884955592153876 -3.141592653589793 -3.141592653589793  -1.256637061435917 -3.141592653589793 -3.141592653589793  -0.6283185307179586 -3.141592653589793 -3.141592653589793  0 -3.141592653589793 -3.141592653589793  0.6283185307179586 -3.141592653589793 -3.141592653589793  1.256637061435917 -3.141592653589793 -3.141592653589793  1.884955592153876 -3.141592653589793 -3.141592653589793  2.513274122871834 -3.141592653589793 -3.141592653589793  3.141592653589793 -3.141592653589793 -3.141592653589793  -3.141592653589793 -2.513274122871834 -3.141592653589793  -2.513274122871834 -2.513274122871834 -3.141592653589793  -1.884955592153876 -2.513274122871834 -3.141592653589793  -1.256637061435917 -2.513274122871834 -3.141592653589793  -0.6283185307179586 -2.513274122871834 -3.141592653589793  0 -2.513274122871834 -3.141592653589793  0.6283185307179586 -2.513274122871834 -3.141592653589793  1.256637061435917 -2.513274122871834 -3.141592653589793  1.884955592153876 -2.513274122871834 -3.141592653589793  2.513274122871834 -2.513274122871834 -3.141592653589793  3.141592653589793 -2.513274122871834 -3.141592653589793  -3.141592653589793 -1.884955592153876 -3.141592653589793  -2.513274122871834 -1.884955592153876 -3.141592653589793  -1.884955592153876 -1.884955592153876 -3.141592653589793  -1.256637061435917 -1.884955592153876 -3.141592653589793  -0.6283185307179586 -1.884955592153876 -3.141592653589793  0 -1.884955592153876 -3.141592653589793  0.6283185307179586 -1.884955592153876 -3.141592653589793  1.256637061435917 -1.884955592153876 -3.141592653589793  1.884955592153876 -1.884955592153876 -3.141592653589793  2.513274122871834 -1.884955592153876 -3.141592653589793  3.141592653589793 -1.884955592153876 -3.141592653589793  -3.141592653589793 -1.256637061435917 -3.141592653589793  -2.513274122871834 -1.256637061435917 -3.141592653589793  -1.884955592153876 -1.256637061435917 -3.141592653589793  -1.256637061435917 -1.256637061435917 -3.141592653589793  -0.6283185307179586 -1.256637061435917 -3.141592653589793  0 -1.256637061435917 -3.141592653589793  0.6283185307179586 -1.256637061435917 -3.141592653589793  1.256637061435917 -1.256637061435917 -3.141592653589793  1.884955592153876 -1.256637061435917 -3.141592653589793  2.513274122871834 -1.256637061435917 -3.141592653589793  3.141592653589793 -1.256637061435917 -3.141592653589793  -3.141592653589793 -0.6283185307179586 -3.141592653589793  -2.513274122871834 -0.6283185307179586 -3.141592653589793  -1.884955592153876 -0.6283185307179586 -3.141592653589793  -1.256637061435917 -0.6283185307179586 -3.141592653589793  -0.6283185307179586 -0.6283185307179586 -3.141592653589793  0 -0.6283185307179586 -3.141592653589793  0.6283185307179586 -0.6283185307179586 -3.141592653589793  1.256637061435917 -0.6283185307179586 -3.141592653589793  1.884955592153876 -0.6283185307179586 -3.141592653589793  2.513274122871834 -0.6283185307179586 -3.141592653589793  3.141592653589793 -0.6283185307179586 -3.141592653589793  -3.141592653589793 0 -3.141592653589793  -2.513274122871834 0 -3.141592653589793  -1.884955592153876 0 -3.141592653589793  -1.256637061435917 0 -3.141592653589793  -0.6283185307179586 0 -3.141592653589793  0 0 -3.141592653589793  0.6283185307179586 0 -3.141592653589793  1.256637061435917 0 -3.141592653589793  1.884955592153876 0 -3.141592653589793  2.513274122871834 0 -3.141592653589793  3.141592653589793 0 -3.141592653589793  -3.141592653589793 0.6283185307179586 -3.141592653589793  -2.513274122871834 0.6283185307179586 -3.141592653589793  -1.884955592153876 0.6283185307179586 -3.141592653589793  -1.256637061435917 0.6283185307179586 -3.141592653589793  -0.6283185307179586 0.6283185307179586 -3.141592653589793  0 0.6283185307179586 -3.141592653589793  0.6283185307179586 0.6283185307179586 -3.141592653589793  1.256637061435917 0.6283185307179586 -3.141592653589793  1.884955592153876 0.6283185307179586 -3.141592653589793  2.513274122871834 0.6283185307179586 -3.141592653589793  3.141592653589793 0.6283185307179586 -3.141592653589793  -3.141592653589793 1.256637061435917 -3.141592653589793  -2.513274122871834 1.256637061435917 -3.141592653589793  -1.884955592153876 1.256637061435917 -3.141592653589793  -1.256637061435917 1.256637061435917 -3.141592653589793  -0.6283185307179586 1.256637061435917 -3.141592653589793  0 1.256637061435917 -3.141592653589793  0.6283185307179586 1.256637061435917 -3.141592653589793  1.256637061435917 1.256637061435917 -3.141592653589793  1.884955592153876 1.256637061435917 -3.141592653589793  2.513274122871834 1.256637061435917 -3.141592653589793  3.141592653589793 1.256637061435917 -3.141592653589793  -3.141592653589793 1.884955592153876 -3.141592653589793  -2.513274122871834 1.884955592153876 -3.141592653589793  -1.884955592153876 1.884955592153876 -3.141592653589793  -1.256637061435917 1.884955592153876 -3.141592653589793  -0.6283185307179586 1.884955592153876 -3.141592653589793  0 1.884955592153876 -3.141592653589793  0.6283185307179586 1.884955592153876 -3.141592653589793  1.256637061435917 1.884955592153876 -3.141592653589793  1.884955592153876 1.884955592153876 -3.141592653589793  2.513274122871834 1.884955592153876 -3.141592653589793  3.141592653589793 1.884955592153876 -3.141592653589793  -3.141592653589793 2.513274122871834 -3.141592653589793  -2.513274122871834 2.513274122871834 -3.141592653589793  -1.884955592153876 2.513274122871834 -3.141592653589793  -1.256637061435917 2.513274122871834 -3.141592653589793  -0.6283185307179586 2.513274122871834 -3.141592653589793  0 2.513274122871834 -3.141592653589793  0.6283185307179586 2.513274122871834 -3.141592653589793  1.256637061435917 2.513274122871834 -3.141592653589793  1.884955592153876 2.513274122871834 -3.141592653589793  2.513274122871834 2.513274122871834 -3.141592653589793  3.141592653589793 2.513274122871834 -3.141592653589793  -3.141592653589793 3.141592653589793 -3.141592653589793  -2.513274122871834 3.141592653589793 -3.141592653589793  -1.884955592153876 3.141592653589793 -3.141592653589793  -1.256637061435917 3.141592653589793 -3.141592653589793  -0.6283185307179586 3.141592653589793 -3.141592653589793  0 3.141592653589793 -3.141592653589793  0.6283185307179586 3.141592653589793 -3.141592653589793  1.256637061435917 3.141592653589793 -3.141592653589793  1.884955592153876 3.141592653589793 -3.141592653589793  2.513274122871834 3.141592653589793 -3.141592653589793  3.141592653589793 3.141592653589793 -3.141592653589793  -3.141592653589793 -3.141592653589793 -2.513274122871834  -2.513274122871834 -3.141592653589793 -2.513274122871834  -1.884955592153876 -3.141592653589793 -2.513274122871834  -1.256637061435917 -3.141592653589793 -2.513274122871834  -0.6283185307179586 -3.141592653589793 -2.513274122871834  0 -3.141592653589793 -2.513274122871834  0.6283185307179586 -3.141592653589793 -2.513274122871834  1.256637061435917 -3.141592653589793 -2.513274122871834  1.884955592153876 -3.141592653589793 -2.513274122871834  2.513274122871834 -3.141592653589793 -2.513274122871834  3.141592653589793 -3.141592653589793 -2.513274122871834  -3.141592653589793 -2.513274122871834 -2.513274122871834  -2.513274122871834 -2.513274122871834 -2.513274122871834  -1.884955592153876 -2.513274122871834 -2.513274122871834  -1.256637061435917 -2.513274122871834 -2.513274122871834  -0.6283185307179586 -2.513274122871834 -2.513274122871834  0 -2.513274122871834 -2.513274122871834  0.6283185307179586 -2.513274122871834 -2.513274122871834  1.256637061435917 -2.513274122871834 -2.513274122871834  1.884955592153876 -2.513274122871834 -2.513274122871834  2.513274122871834 -2.513274122871834 -2.513274122871834  3.141592653589793 -2.513274122871834 -2.513274122871834  -3.141592653589793 -1.884955592153876 -2.513274122871834  -2.513274122871834 -1.884955592153876 -2.513274122871834  -1.884955592153876 -1.884955592153876 -2.513274122871834  -1.256637061435917 -1.884955592153876 -2.513274122871834  -0.6283185307179586 -1.884955592153876 -2.513274122871834  0 -1.884955592153876 -2.513274122871834  0.6283185307179586 -1.884955592153876 -2.513274122871834  1.256637061435917 -1.884955592153876 -2.513274122871834  1.884955592153876 -1.884955592153876 -2.513274122871834  2.513274122871834 -1.884955592153876 -2.513274122871834  3.141592653589793 -1.884955592153876 -2.513274122871834  -3.141592653589793 -1.256637061435917 -2.513274122871834  -2.513274122871834 -1.256637061435917 -2.513274122871834  -1.884955592153876 -1.256637061435917 -2.513274122871834  -1.256637061435917 -1.256637061435917 -2.513274122871834  -0.6283185307179586 -1.256637061435917 -2.513274122871834  0 -1.256637061435917 -2.513274122871834  0.6283185307179586 -1.256637061435917 -2.513274122871834  1.256637061435917 -1.256637061435917 -2.513274122871834  1.884955592153876 -1.256637061435917 -2.513274122871834  2.513274122871834 -1.256637061435917 -2.513274122871834  3.141592653589793 -1.256637061435917 -2.513274122871834  -3.141592653589793 -0.6283185307179586 -2.513274122871834  -2.513274122871834 -0.6283185307179586 -2.513274122871834  -1.884955592153876 -0.6283185307179586 -2.513274122871834  -1.256637061435917 -0.6283185307179586 -2.513274122871834  -0.6283185307179586 -0.6283185307179586 -2.513274122871834  0 -0.6283185307179586 -2.513274122871834  0.6283185307179586 -0.6283185307179586 -2.513274122871834  1.256637061435917 -0.6283185307179586 -2.513274122871834  1.884955592153876 -0.6283185307179586 -2.513274122871834  2.513274122871834 -0.6283185307179586 -2.513274122871834  3.141592653589793 -0.6283185307179586 -2.513274122871834  -3.141592653589793 0 -2.513274122871834  -2.513274122871834 0 -2.513274122871834  -1.884955592153876 
[...]
<PointData  Vectors="f_11"> 
<DataArray  type="Float64"  Name="f_11"  NumberOfComponents="3" format="ascii">-8.8136353055505068e-15 1.2715494403725661e-14 4.0366889363821891e-16  -6.0001457321240015e-01 6.2224589974835872e-04 -1.1926361783743025e-03  -9.5711104499042166e-01 7.6930138315658156e-04 -4.9200628336844028e-04  -9.3955968984284899e-01 4.2438548732669565e-04 9.0826600810134221e-04  -5.7157349109296152e-01 5.9512228448483541e-05 1.0695471684029894e-03  1.0175133217248743e-14 -2.5092449306428608e-14 3.3021009061758681e-16  5.7157349109303401e-01 -5.9512228466915026e-05 -1.0695471684033639e-03  9.3955968984278260e-01 -4.2438548733959012e-04 -9.0826600810134308e-04  9.5711104499041866e-01 -7.6930138314694322e-04 4.9200628336895993e-04  6.0001457321238560e-01 -6.2224589972762075e-04 1.1926361783739358e-03  -8.8136353055505068e-15 1.2715494403725661e-14 4.0366889363821891e-16  -5.9512228479226236e-05 5.7157349109303246e-01 -1.0695471684032487e-03  -4.8802237958343159e-01 4.6015434132655098e-01 -2.2650389334261298e-03  -7.7560006540676907e-01 1.6731848848702080e-01 -1.6443491340698332e-03  -7.5786458749763386e-01 -1.9490244017353250e-01 -2.7228850508078539e-04  -4.5906819770169305e-01 -4.8807921228569240e-01 -8.9782586816991567e-05  6.2224589975437572e-04 -6.0001457321240104e-01 -1.1926361783737940e-03  4.6015434132655497e-01 -4.8802237958341688e-01 -2.2650389334261758e-03  7.5862110256435011e-01 -1.9541428060195912e-01 -2.0258411775350210e-03  7.7600837009472046e-01 1.6610177067443921e-01 -5.9720830031724785e-04  4.8807921228562356e-01 4.5906819770169044e-01 8.9782586817200967e-05  -5.9512228479226236e-05 5.7157349109303246e-01 -1.0695471684032487e-03  -4.2438548733929983e-04 9.3955968984277816e-01 -9.0826600810138395e-04  -1.9541428060196236e-01 7.5862110256435933e-01 -2.0258411775351225e-03  -3.0160149178264195e-01 2.8437765729136799e-01 -1.4001306261718963e-03  -2.8374850564516763e-01 -3.0169572744095130e-01 1.4512001266980544e-04  -1.6610177067441395e-01 -7.7600837009471313e-01 5.9720830031716990e-04  7.6930138315660227e-04 -9.5711104499041799e-01 -4.9200628336882701e-04  1.6731848848702202e-01 -7.7560006540673743e-01 -1.6443491340697417e-03  2.8437765729136033e-01 -3.0160149178263679e-01 -1.4001306261720921e-03  3.0169572744094630e-01 2.8374850564520615e-01 -1.4512001266983363e-04  1.9490244017351110e-01 7.5786458749762386e-01 2.7228850508070190e-04  -4.2438548733929983e-04 9.3955968984277816e-01 -9.0826600810138395e-04  -7.6930138314683393e-04 9.5711104499040267e-01 4.9200628336862643e-04  1.6610177067442877e-01 7.7600837009470047e-01 -5.9720830031747868e-04  2.8374850564520221e-01 3.0169572744095419e-01 -1.4512001266999954e-04  3.0160149178266266e-01 -2.8437765729136893e-01 1.4001306261719160e-03  1.9541428060196764e-01 -7.5862110256436277e-01 2.0258411775351572e-03  4.2438548733112711e-04 -9.3955968984280025e-01 9.0826600810141453e-04  -1.9490244017353578e-01 -7.5786458749762697e-01 -2.7228850508056600e-04  -3.0169572744096357e-01 -2.8374850564517695e-01 1.4512001266980069e-04  -2.8437765729137970e-01 3.0160149178264622e-01 1.4001306261720388e-03  -1.6731848848703612e-01 7.7560006540680249e-01 1.6443491340696662e-03  -7.6930138314683393e-04 9.5711104499040267e-01 4.9200628336862643e-04  -6.2224589972506702e-04 6.0001457321240004e-01 1.1926361783740546e-03  4.5906819770173224e-01 4.8807921228566492e-01 8.9782586817181099e-05  7.5786458749760910e-01 1.9490244017350544e-01 2.7228850508017092e-04  7.7560006540672366e-01 -1.6731848848702643e-01 1.6443491340697638e-03  4.8802237958338396e-01 -4.6015434132656535e-01 2.2650389334261745e-03  5.9512228454702952e-05 -5.7157349109297995e-01 1.0695471684033465e-03  -4.8807921228568363e-01 -4.5906819770170498e-01 -8.9782586817075687e-05  -7.7600837009471479e-01 -1.6610177067441514e-01 5.9720830031735638e-04  -7.5862110256434545e-01 1.9541428060196464e-01 2.0258411775348891e-03  -4.6015434132653599e-01 4.8802237958342620e-01 2.2650389334260244e-03  -6.2224589972506702e-04 6.0001457321240004e-01 1.1926361783740546e-03  1.5003531613346098e-14 -1.9444960972237874e-14 -3.6785885111413095e-19  5.7157349109300393e-01 -5.9512228476031452e-05 -1.0695471684030742e-03  9.3955968984279159e-01 -4.2438548733850825e-04 -9.0826600810149291e-04  9.5711104499038280e-01 -7.6930138315052412e-04 4.9200628336855455e-04  6.0001457321238527e-01 -6.2224589972291965e-04 1.1926361783742854e-03  -1.2069832529322188e-14 1.0676732819666403e-14 -3.1327351713774422e-18  -6.0001457321240415e-01 6.2224589974817137e-04 -1.1926361783739581e-03  -9.5711104499037392e-01 7.6930138315650621e-04 -4.9200628336851877e-04  -9.3955968984281424e-01 4.2438548732956494e-04 9.0826600810119541e-04  -5.7157349109298905e-01 5.9512228453475303e-05 1.0695471684027732e-03  1.5003531613346098e-14 -1.9444960972237874e-14 -3.6785885111413095e-19  6.2224589974843060e-04 -6.0001457321241181e-01 -1.1926361783743417e-03  4.6015434132654498e-01 -4.8802237958342004e-01 -2.2650389334263736e-03  7.5862110256436643e-01 -1.9541428060196639e-01 -2.0258411775352821e-03  7.7600837009469126e-01 1.6610177067443482e-01 -5.9720830031723690e-04  4.8807921228566187e-01 4.5906819770171325e-01 8.9782586816940596e-05  -5.9512228479237810e-05 5.7157349109303401e-01 -1.0695471684028211e-03  -4.8802237958342365e-01 4.6015434132656835e-01 -2.2650389334261259e-03  -7.7560006540670334e-01 1.6731848848701808e-01 -1.6443491340699032e-03  -7.5786458749760399e-01 -1.9490244017351646e-01 -2.7228850508041145e-04  -4.5906819770169455e-01 -4.8807921228568785e-01 -8.9782586817284234e-05  6.2224589974843060e-04 -6.0001457321241181e-01 -1.1926361783743417e-03  7.6930138315819572e-04 -9.5711104499038413e-01 -4.9200628336869647e-04  1.6731848848703718e-01 -7.7560006540679316e-01 -1.6443491340699464e-03  2.8437765729137399e-01 -3.0160149178264684e-01 -1.4001306261722062e-03  3.0169572744093520e-01 2.8374850564519238e-01 -1.4512001267002550e-04  1.9490244017351416e-01 7.5786458749766317e-01 2.7228850508075557e-04  -4.2438548733903159e-04 9.3955968984278382e-01 -9.0826600810128616e-04  -1.9541428060196117e-01 7.5862110256434001e-01 -2.0258411775347005e-03  -3.0160149178264567e-01 2.8437765729136344e-01 -1.4001306261719020e-03  -2.8374850564516202e-01 -3.0169572744096546e-01 1.4512001266962852e-04  -1.6610177067441467e-01 -7.7600837009469881e-01 5.9720830031722064e-04  7.6930138315819572e-04 -9.5711104499038413e-01 -4.9200628336869647e-04  4.2438548732763576e-04 -9.3955968984282034e-01 9.0826600810131554e-04  -1.9490244017352654e-01 -7.5786458749759877e-01 -2.7228850508086849e-04  -3.0169572744093986e-01 -2.8374850564516735e-01 1.4512001267000661e-04  -2.8437765729139475e-01 3.0160149178264806e-01 1.4001306261718983e-03  -1.6731848848703093e-01 7.7560006540681303e-01 1.6443491340699772e-03  -7.6930138314575569e-04 9.5711104499035116e-01 4.9200628336871859e-04  1.6610177067444071e-01 7.7600837009471624e-01 -5.9720830031741330e-04  2.8374850564519388e-01 3.0169572744094780e-01 -1.4512001266971071e-04  3.0160149178266332e-01 -2.8437765729138942e-01 1.4001306261720106e-03  1.9541428060196950e-01 -7.5862110256434601e-01 2.0258411775346719e-03  4.2438548732763576e-04 -9.3955968984282034e-01 9.0826600810131554e-04  5.9512228455298735e-05 -5.7157349109300093e-01 1.0695471684029618e-03  -4.8807921228569023e-01 -4.5906819770169710e-01 -8.9782586817127946e-05  -7.7600837009470569e-01 -1.6610177067441220e-01 5.9720830031718833e-04  -7.5862110256435478e-01 1.9541428060197355e-01 2.0258411775351654e-03  -4.6015434132653837e-01 4.8802237958341982e-01 2.2650389334264924e-03  -6.2224589972279909e-04 6.0001457321239604e-01 1.1926361783744261e-03  4.5906819770175233e-01 4.8807921228571688e-01 8.9782586817353948e-05  7.5786458749763019e-01 1.9490244017350966e-01 2.7228850508049900e-04  7.7560006540676718e-01 -1.6731848848703088e-01 1.6443491340698015e-03  4.8802237958341715e-01 -4.6015434132654509e-01 2.2650389334265050e-03  5.9512228455298735e-05 -5.7157349109300093e-01 1.0695471684029618e-03  -8.8136353055505068e-15 1.2715494403725661e-14 4.0366889363821891e-16  -6.0001457321240015e-01 6.2224589974835872e-04 -1.1926361783743025e-03  -9.5711104499042166e-01 7.6930138315658156e-04 -4.9200628336844028e-04  -9.3955968984284899e-01 4.2438548732669565e-04 9.0826600810134221e-04  -5.7157349109296152e-01 5.9512228448483541e-05 1.0695471684029894e-03  1.0175133217248743e-14 -2.5092449306428608e-14 3.3021009061758681e-16  5.7157349109303401e-01 -5.9512228466915026e-05 -1.0695471684033639e-03  9.3955968984278260e-01 -4.2438548733959012e-04 -9.0826600810134308e-04  9.5711104499041866e-01 -7.6930138314694322e-04 4.9200628336895993e-04  6.0001457321238560e-01 -6.2224589972762075e-04 1.1926361783739358e-03  -8.8136353055505068e-15 1.2715494403725661e-14 4.0366889363821891e-16  -1.7315463219038073e-03 -9.8586891726788555e-04 3.2382175427993478e-03  -4.8245888334990733e-01 -6.5508058378955212e-04 1.6642824500569995e-03  -7.7085845458448765e-01 -8.4765973618518135e-04 6.5151749842754430e-05  -7.6077174670722403e-01 -1.3405864998556384e-03 6.7008239393597001e-04  -4.6590295587789421e-01 -1.6779318745695358e-03 2.5349583090797816e-03  -9.8586891727198427e-04 -1.7315463219068055e-03 3.2382175427995556e-03  4.6583294527943070e-01 -1.8043775807584283e-03 1.8772541456809936e-03  7.6360860030908695e-01 -2.0099747122508411e-03 1.2424924336128793e-04  7.7319718270093096e-01 -2.0173008735209505e-03 3.8158253146748910e-04  4.8114525142416542e-01 -1.5959861629259062e-03 2.4000873901751088e-03  -1.7315463219038073e-03 -9.8586891726788555e-04 3.2382175427993478e-03  -1.8043775807488767e-03 4.6583294527950359e-01 1.8772541456806614e-03  -3.9181390747524703e-01 3.7545587946002534e-01 2.9874542969734715e-04  -6.2398285830866340e-01 1.3826996169177005e-01 -1.3671787681443055e-03  -6.1379807441841527e-01 -1.5493988380921755e-01 -8.5814872627025703e-04  -3.7496222650306343e-01 -3.9205640978658612e-01 9.6922123662001149e-04  -6.5508058379593645e-04 -4.8245888334992454e-01 1.6642824500572109e-03  3.7545587946000852e-01 -3.9181390747527139e-01 2.9874542969725618e-04  6.1701490213055643e-01 -1.5501822935569320e-01 -1.3915400729675011e-03  6.2651651863129632e-01 1.3768808049244227e-01 -1.0318908877845465e-03  3.9047545211612594e-01 3.7488143718824096e-01 1.0326299179152011e-03  -1.8043775807488767e-03 4.6583294527950359e-01 1.8772541456806614e-03  -2.0099747122470511e-03 7.6360860030909050e-01 1.2424924336175845e-04  -1.5501822935569570e-01 6.1701490213055155e-01 -1.3915400729675835e-03  -2.4053468093028196e-01 2.3316603268831856e-01 -3.0576434647594437e-03  -2.3038872174265843e-01 -2.4107347474592106e-01 -2.5869796258832511e-03  -1.3820972407412019e-01 -6.2462029472083302e-01 -6.8127475355771476e-04  -8.4765973618476176e-04 -7.7085845458453950e-01 6.5151749842728111e-05  1.3826996169176439e-01 -6.2398285830869460e-01 -1.3671787681441663e-03  2.3316603268831915e-01 -2.4053468093028257e-01 -3.0576434647593136e-03  2.4271374279716418e-01 2.3317589408227254e-01 -2.6579631235865752e-03  1.5331790337471829e-01 6.1679903367645339e-01 -6.6883323276173976e-04  -2.0099747122470511e-03 7.6360860030909050e-01 1.2424924336175845e-04  -2.0173008735203755e-03 7.7319718270091586e-01 3.8158253146703861e-04  1.3768808049245465e-01 6.2651651863128444e-01 -1.0318908877845437e-03  2.3317589408225775e-01 2.4271374279717622e-01 -2.6579631235866411e-03  2.4315924574772932e-01 -2.3137575155642168e-01 -2.1904202645230382e-03  1.5408711528077379e-01 -6.1472287122569158e-01 -1.5259628276532194e-04  -1.3405864998560890e-03 -7.6077174670721637e-01 6.7008239393600904e-04  -1.5493988380922027e-01 -6.1379807441839895e-01 -8.5814872627051355e-04  -2.4107347474592450e-01 -2.3038872174266181e-01 -2.5869796258833739e-03  -2.3137575155640661e-01 2.4315924574771824e-01 -2.1904202645230781e-03  -1.3950315917266215e-01 6.2656888799364996e-01 -3.3832552748542654e-04  -2.0173008735203755e-03 7.7319718270091586e-01 3.8158253146703861e-04  -1.5959861629247882e-03 4.8114525142419273e-01 2.4000873901755004e-03  3.7488143718824707e-01 3.9047545211611279e-01 1.0326299179153819e-03  6.1679903367642042e-01 1.5331790337472487e-01 -6.6883323276199021e-04  6.2656888799365718e-01 -1.3950315917265949e-01 -3.3832552748562234e-04  3.9069608782479370e-01 -3.7603203611402336e-01 1.6957257436042050e-03  -1.6779318745692663e-03 -4.6590295587793018e-01 2.5349583090795648e-03  -3.9205640978660050e-01 -3.7496222650303629e-01 9.6922123662038532e-04  -6.2462029472082314e-01 -1.3820972407411777e-01 -6.8127475355771086e-04  -6.1472287122571923e-01 1.5408711528077365e-01 -1.5259628276535685e-04  -3.7603203611405273e-01 3.9069608782479670e-01 1.6957257436042044e-03  -1.5959861629247882e-03 4.8114525142419273e-01 2.4000873901755004e-03  -9.8586891726377751e-04 -1.7315463219073472e-03 3.2382175427991627e-03  4.6583294527948677e-01 -1.8043775807593846e-03 1.8772541456807870e-03  7.6360860030905631e-01 -2.0099747122449387e-03 1.2424924336152125e-04  7.7319718270091409e-01 -2.0173008735221497e-03 3.8158253146719571e-04  4.8114525142417619e-01 -1.5959861629216447e-03 2.4000873901750077e-03  -1.7315463219116283e-03 -9.8586891726758826e-04 3.2382175427994242e-03  -4.8245888334993625e-01 -6.5508058378803218e-04 1.6642824500567829e-03  -7.7085845458446611e-01 -8.4765973618611832e-04 6.5151749842933432e-05  -7.6077174670724634e-01 -1.3405864998569704e-03 6.7008239393567023e-04  -4.6590295587791519e-01 -1.6779318745684189e-03 2.5349583090795375e-03  -9.8586891726377751e-04 -1.7315463219073472e-03 3.2382175427991627e-03  -6.5508058378943395e-04 -4.8245888334991216e-01 1.6642824500571003e-03  3.7545587946001302e-01 -3.9181390747525768e-01 2.9874542969737539e-04  6.1701490213056875e-01 -1.5501822935568912e-01 -1.3915400729676267e-03  6.2651651863130109e-01 1.3768808049244996e-01 -1.0318908877846933e-03  3.9047545211609935e-01 3.7488143718823735e-01 1.0326299179150846e-03  -1.8043775807542062e-03 4.6583294527947028e-01 1.8772541456807232e-03  -3.9181390747525729e-01 3.7545587946000281e-01 2.9874542969761825e-04  -6.2398285830871469e-01 1.3826996169176245e-01 -1.3671787681444152e-03  -6.1379807441840406e-01 -1.5493988380922089e-01 -8.5814872627009244e-04  -3.7496222650307348e-01 -3.9205640978660322e-01 9.6922123662017651e-04  -6.5508058378943395e-04 -4.8245888334991216e-01 1.6642824500571003e-03  -8.4765973618834136e-04 -7.7085845458452595e-01 6.5151749842617916e-05  1.3826996169176123e-01 -6.2398285830870537e-01 -1.3671787681444163e-03  2.3316603268831920e-01 -2.4053468093028546e-01 -3.0576434647596128e-03  2.4271374279717461e-01 2.3317589408226036e-01 -2.6579631235865604e-03  1.5331790337471424e-01 6.1679903367643774e-01 -6.6883323276191431e-04  -2.0099747122436168e-03 7.6360860030910982e-01 1.2424924336168835e-04  -1.5501822935569085e-01 6.1701490213052568e-01 -1.3915400729675980e-03  -2.4053468093028799e-01 2.3316603268831937e-01 -3.0576434647590894e-03  -2.3038872174266187e-01 -2.4107347474593283e-01 -2.5869796258833865e-03  -1.3820972407412432e-01 -6.2462029472081548e-01 -6.8127475355793160e-04  -8.4765973618834136e-04 -7.7085845458452595e-01 6.5151749842617916e-05  -1.3405864998557141e-03 -7.6077174670726788e-01 6.7008239393591927e-04  -1.5493988380921808e-01 -6.1379807441840739e-01 -8.5814872627044340e-04  -2.4107347474592081e-01 -2.3038872174266672e-01 -2.5869796258835166e-03  -2.3137575155643739e-01 2.4315924574773498e-01 -2.1904202645230677e-03  -1.3950315917265274e-01 6.2656888799360466e-01 -3.3832552748522330e-04  -2.0173008735193416e-03 7.7319718270096738e-01 3.8158253146753203e-04  1.3768808049246009e-01 6.2651651863133295e-01 -1.0318908877842443e-03  2.3317589408224909e-01 2.4271374279716490e-01 -2.6579631235865999e-03  2.4315924574772080e-01 -2.3137575155643042e-01 -2.1904202645227685e-03  1.5408711528078051e-01 -6.1472287122574842e-01 -1.5259628276527142e-04  -1.3405864998557141e-03 -7.6077174670726788e-01 6.7008239393591927e-04  -1.6779318745651103e-03 -4.6590295587793229e-01 2.5349583090794234e-03  -3.9205640978660172e-01 -3.7496222650307437e-01 9.6922123662017564e-04  -6.2462029472084202e-01 -1.3820972407410650e-01 -6.8127475355770869e-04  -6.1472287122571645e-01 1.5408711528077476e-01 -1.5259628276522390e-04  -3.7603203611401964e-01 3.9069608782479576e-01 1.6957257436045266e-03  -1.5959861629261842e-03 4.8114525142418024e-01 2.4000873901754921e-03  3.7488143718824030e-01 3.9047545211614643e-01 1.0326299179152464e-03  6.1679903367644839e-01 1.5331790337471185e-01 -6.6883323276184427e-04  6.2656888799365273e-01 -1.3950315917266143e-01 -3.3832552748579668e-04  3.9069608782477477e-01 -3.7603203611401698e-01 1.6957257436043772e-03  -1.6779318745651103e-03 -4.6590295587793229e-01 2.5349583090794234e-03  -1.7315463219038073e-03 -9.8586891726788555e-04 3.2382175427993478e-03  -4.8245888334990733e-01 -6.5508058378955212e-04 1.6642824500569995e-03  -7.7085845458448765e-01 -8.4765973618518135e-04 6.5151749842754430e-05  -7.6077174670722403e-01 -1.3405864998556384e-03 6.7008239393597001e-04  -4.6590295587789421e-01 -1.6779318745695358e-03 2.5349583090797816e-03  -9.8586891727198427e-04 -1.7315463219068055e-03 3.2382175427995556e-03  4.6583294527943070e-01 -1.8043775807584283e-03 1.8772541456809936e-03  7.6360860030908695e-01 -2.0099747122508411e-03 1.2424924336128793e-04  7.7319718270093096e-01 -2.0173008735209505e-03 3.8158253146748910e-04  4.8114525142416542e-01 -1.5959861629259062e-03 2.4000873901751088e-03  -1.7315463219038073e-03 -9.8586891726788555e-04 3.2382175427993478e-03  -1.3638260275917202e-03 -3.1585379306615512e-04 2.0049396970380951e-03  -1.7943530002027266e-01 -2.8731052899426369e-04 2.2236342917022235e-03  -2.9098358586784001e-01 -5.8850547844019373e-04 6.9727221025525199e-04  -2.9328635923104251e-01 -1.0106104008542620e-03 -4.0781221854488430e-04  -1.8286545128082107e-01 -1.2919157574760316e-03 4.2208817043393410e-04  -3.1585379306585095e-04 -1.3638260275890142e-03 2.0049396970388792e-03  1.8333654312957337e-01 -1.3322227804357892e-03 2.2258670620568170e-03  2.9527030012927524e-01 -1.2392144466228340e-03 8.1566423979011335e-04  2.9222249123018545e-01 -1.0050378341023836e-03 -3.3866770910049676e-04  1.7811350247610017e-01 -6.3260729626129966e-04 3.7510918462226121e-04  -1.3638260275917202e-03 -3.1585379306615512e-04 2.0049396970380951e-03  -1.3322227804348362e-03 1.8333654312957315e-01 2.2258670620567871e-03  -1.4467586334592158e-01 1.4865302636705610e-01 2.4468499472298272e-03  -2.3474067616435579e-01 5.7800714250165919e-02 9.2239673797701080e-04  -2.3706342085761181e-01 -5.4401385831426029e-02 -1.9327343117109592e-04  -1.4812891477687695e-01 -1.4499650583333448e-01 6.3320587124588411e-04  -2.8731052899206211e-04 -1.7943530002028332e-01 2.2236342917026385e-03  1.4865302636705216e-01 -1.4467586334591190e-01 2.4468499472302331e-03  2.3912045696101084e-01 -5.4019866790232920e-02 1.0402957075293835e-03  2.3608841633764407e-01 5.7987659247153649e-02 -1.0380024965700418e-04  1.4344585921070091e-01 1.4865602370566211e-01 6.0703275365158306e-04  -1.3322227804348362e-03 1.8333654312957315e-01 2.2258670620567871e-03  -1.2392144466198025e-03 2.9527030012926719e-01 8.1566423979004374e-04  -5.4019866790232594e-02 2.3912045696101927e-01 1.0402957075294165e-03  -8.8129229602016496e-02 9.2296336679217689e-02 -4.8498508736979820e-04  -9.0611956311439604e-02 -8.8972999600138519e-02 -1.6542994131979172e-03  -5.7836332725224947e-02 -2.3534545170929347e-01 -8.8739421582359837e-04  -5.8850547844139904e-04 -2.9098358586785028e-01 6.9727221025517880e-04  5.7800714250164552e-02 -2.3474067616435232e-01 9.2239673797673909e-04  9.2296336679223184e-02 -8.8129229602016967e-02 -4.8498508736997850e-04  8.9406102959803446e-02 9.2916349816531976e-02 -1.5799773249680776e-03  5.2926052405531436e-02 2.3936218052903832e-01 -8.1259629837071936e-04  -1.2392144466198025e-03 2.9527030012926719e-01 8.1566423979004374e-04  -1.0050378341025651e-03 2.9222249123016808e-01 -3.3866770910002351e-04  5.7987659247151969e-02 2.3608841633763886e-01 -1.0380024965685740e-04  9.2916349816517668e-02 8.9406102959792455e-02 -1.5799773249681706