<?xml version="1.0"?>
<VTKFile type="UnstructuredGrid"  version="0.1"  >
<UnstructuredGrid>
<Piece  NumberOfPoints="1331" NumberOfCells="6000">
<Points>
<DataArray  type="Float64"  NumberOfComponents="3"  format="ascii">-3.141592653589793 -3.141592653589793 -3.141592653589793  -2.513274122871834 -3.141592653589793 -3.141592653589793  -1.884955592153876 -3.141592653589793 -3.141592653589793  -1.256637061435917 -3.141592653589793 -3.141592653589793  -0.6283185307179586 -3.141592653589793 -3.141592653589793  0 -3.141592653589793 -3.141592653589793  0.6283185307179586 -3.141592653589793 -3.141592653589793  1.256637061435917 -3.141592653589793 -3.141592653589793  1.884955592153876 -3.141592653589793 -3.141592653589793  2.513274122871834 -3.141592653589793 -3.141592653589793  3.141592653589793 -3.141592653589793 -3.141592653589793  -3.141592653589793 -2.513274122871834 -3.141592653589793  -2.513274122871834 -2.513274122871834 -3.141592653589793  -1.884955592153876 -2.513274122871834 -3.141592653589793  -1.256637061435917 -2.513274122871834 -3.141592653589793  -0.6283185307179586 -2.513274122871834 -3.141592653589793  0 -2.513274122871834 -3.141592653589793  0.6283185307179586 -2.513274122871834 -3.141592653589793  1.256637061435917 -2.513274122871834 -3.141592653589793  1.884955592153876 -2.513274122871834 -3.141592653589793  2.513274122871834 -2.513274122871834 -3.141592653589793  3.141592653589793 -2.513274122871834 -3.141592653589793  -3.141592653589793 -1.884955592153876 -3.141592653589793  -2.513274122871834 -1.884955592153876 -3.141592653589793  -1.884955592153876 -1.884955592153876 -3.141592653589793  -1.256637061435917 -1.884955592153876 -3.141592653589793  -0.6283185307179586 -1.884955592153876 -3.141592653589793  0 -1.884955592153876 -3.141592653589793  0.6283185307179586 -1.884955592153876 -3.141592653589793  1.256637061435917 -1.884955592153876 -3.141592653589793  1.884955592153876 -1.884955592153876 -3.141592653589793  2.513274122871834 -1.884955592153876 -3.141592653589793  3.141592653589793 -1.884955592153876 -3.141592653589793  -3.141592653589793 -1.256637061435917 -3.141592653589793  -2.513274122871834 -1.256637061435917 -3.141592653589793  -1.884955592153876 -1.256637061435917 -3.141592653589793  -1.256637061435917 -1.256637061435917 -3.141592653589793  -0.6283185307179586 -1.256637061435917 -3.141592653589793  0 -1.256637061435917 -3.141592653589793  0.6283185307179586 -1.256637061435917 -3.141592653589793  1.256637061435917 -1.256637061435917 -3.141592653589793  1.884955592153876 -1.256637061435917 -3.141592653589793  2.513274122871834 -1.256637061435917 -3.141592653589793  3.141592653589793 -1.256637061435917 -3.141592653589793  -3.141592653589793 -0.6283185307179586 -3.141592653589793  -2.513274122871834 -0.6283185307179586 -3.141592653589793  -1.884955592153876 -0.6283185307179586 -3.141592653589793  -1.256637061435917 -0.6283185307179586 -3.141592653589793  -0.6283185307179586 -0.6283185307179586 -3.141592653589793  0 -0.6283185307179586 -3.141592653589793  0.6283185307179586 -0.6283185307179586 -3.141592653589793  1.256637061435917 -0.6283185307179586 -3.141592653589793  1.884955592153876 -0.6283185307179586 -3.141592653589793  2.513274122871834 -0.6283185307179586 -3.141592653589793  3.141592653589793 -0.6283185307179586 -3.141592653589793  -3.141592653589793 0 -3.141592653589793  -2.513274122871834 0 -3.141592653589793  -1.884955592153876 0 -3.141592653589793  -1.256637061435917 0 -3.141592653589793  -0.6283185307179586 0 -3.141592653589793  0 0 -3.141592653589793  0.6283185307179586 0 -3.141592653589793  1.256637061435917 0 -3.141592653589793  1.884955592153876 0 -3.141592653589793  2.513274122871834 0 -3.141592653589793  3.141592653589793 0 -3.141592653589793  -3.141592653589793 0.6283185307179586 -3.141592653589793  -2.513274122871834 0.6283185307179586 -3.141592653589793  -1.884955592153876 0.6283185307179586 -3.141592653589793  -1.256637061435917 0.6283185307179586 -3.141592653589793  -0.6283185307179586 0.6283185307179586 -3.141592653589793  0 0.6283185307179586 -3.141592653589793  0.6283185307179586 0.6283185307179586 -3.141592653589793  1.256637061435917 0.6283185307179586 -3.141592653589793  1.884955592153876 0.6283185307179586 -3.141592653589793  2.513274122871834 0.6283185307179586 -3.141592653589793  3.141592653589793 0.6283185307179586 -3.141592653589793  -3.141592653589793 1.256637061435917 -3.141592653589793  -2.513274122871834 1.256637061435917 -3.141592653589793  -1.884955592153876 1.256637061435917 -3.141592653589793  -1.256637061435917 1.256637061435917 -3.141592653589793  -0.6283185307179586 1.256637061435917 -3.141592653589793  0 1.256637061435917 -3.141592653589793  0.6283185307179586 1.256637061435917 -3.141592653589793  1.256637061435917 1.256637061435917 -3.141592653589793  1.884955592153876 1.256637061435917 -3.141592653589793  2.513274122871834 1.256637061435917 -3.141592653589793  3.141592653589793 1.256637061435917 -3.141592653589793  -3.141592653589793 1.884955592153876 -3.141592653589793  -2.513274122871834 1.884955592153876 -3.141592653589793  -1.884955592153876 1.884955592153876 -3.141592653589793  -1.256637061435917 1.884955592153876 -3.141592653589793  -0.6283185307179586 1.884955592153876 -3.141592653589793  0 1.884955592153876 -3.141592653589793  0.6283185307179586 1.884955592153876 -3.141592653589793  1.256637061435917 1.884955592153876 -3.141592653589793  1.884955592153876 1.884955592153876 -3.141592653589793  2.513274122871834 1.884955592153876 -3.141592653589793  3.141592653589793 1.884955592153876 -3.141592653589793  -3.141592653589793 2.513274122871834 -3.141592653589793  -2.513274122871834 2.513274122871834 -3.141592653589793  -1.884955592153876 2.513274122871834 -3.141592653589793  -1.256637061435917 2.513274122871834 -3.141592653589793  -0.6283185307179586 2.513274122871834 -3.141592653589793  0 2.513274122871834 -3.141592653589793  0.6283185307179586 2.513274122871834 -3.141592653589793  1.256637061435917 2.513274122871834 -3.141592653589793  1.884955592153876 2.513274122871834 -3.141592653589793  2.513274122871834 2.513274122871834 -3.141592653589793  3.141592653589793 2.513274122871834 -3.141592653589793  -3.141592653589793 3.141592653589793 -3.141592653589793  -2.513274122871834 3.141592653589793 -3.141592653589793  -1.884955592153876 3.141592653589793 -3.141592653589793  -1.256637061435917 3.141592653589793 -3.141592653589793  -0.6283185307179586 3.141592653589793 -3.141592653589793  0 3.141592653589793 -3.141592653589793  0.6283185307179586 3.141592653589793 -3.141592653589793  1.256637061435917 3.141592653589793 -3.141592653589793  1.884955592153876 3.141592653589793 -3.141592653589793  2.513274122871834 3.141592653589793 -3.141592653589793  3.141592653589793 3.141592653589793 -3.141592653589793  -3.141592653589793 -3.141592653589793 -2.513274122871834  -2.513274122871834 -3.141592653589793 -2.513274122871834  -1.884955592153876 -3.141592653589793 -2.513274122871834  -1.256637061435917 -3.141592653589793 -2.513274122871834  -0.6283185307179586 -3.141592653589793 -2.513274122871834  0 -3.141592653589793 -2.513274122871834  0.6283185307179586 -3.141592653589793 -2.513274122871834  1.256637061435917 -3.141592653589793 -2.513274122871834  1.884955592153876 -3.141592653589793 -2.513274122871834  2.513274122871834 -3.141592653589793 -2.513274122871834  3.141592653589793 -3.141592653589793 -2.513274122871834  -3.141592653589793 -2.513274122871834 -2.513274122871834  -2.513274122871834 -2.513274122871834 -2.513274122871834  -1.884955592153876 -2.513274122871834 -2.513274122871834  -1.256637061435917 -2.513274122871834 -2.513274122871834  -0.6283185307179586 -2.513274122871834 -2.513274122871834  0 -2.513274122871834 -2.513274122871834  0.6283185307179586 -2.513274122871834 -2.513274122871834  1.256637061435917 -2.513274122871834 -2.513274122871834  1.884955592153876 -2.513274122871834 -2.513274122871834  2.513274122871834 -2.513274122871834 -2.513274122871834  3.141592653589793 -2.513274122871834 -2.513274122871834  -3.141592653589793 -1.884955592153876 -2.513274122871834  -2.513274122871834 -1.884955592153876 -2.513274122871834  -1.884955592153876 -1.884955592153876 -2.513274122871834  -1.256637061435917 -1.884955592153876 -2.513274122871834  -0.6283185307179586 -1.884955592153876 -2.513274122871834  0 -1.884955592153876 -2.513274122871834  0.6283185307179586 -1.884955592153876 -2.513274122871834  1.256637061435917 -1.884955592153876 -2.513274122871834  1.884955592153876 -1.884955592153876 -2.513274122871834  2.513274122871834 -1.884955592153876 -2.513274122871834  3.141592653589793 -1.884955592153876 -2.513274122871834  -3.141592653589793 -1.256637061435917 -2.513274122871834  -2.513274122871834 -1.256637061435917 -2.513274122871834  -1.884955592153876 -1.256637061435917 -2.513274122871834  -1.256637061435917 -1.256637061435917 -2.513274122871834  -0.6283185307179586 -1.256637061435917 -2.513274122871834  0 -1.256637061435917 -2.513274122871834  0.6283185307179586 -1.256637061435917 -2.513274122871834  1.256637061435917 -1.256637061435917 -2.513274122871834  1.884955592153876 -1.256637061435917 -2.513274122871834  2.513274122871834 -1.256637061435917 -2.513274122871834  3.141592653589793 -1.256637061435917 -2.513274122871834  -3.141592653589793 -0.6283185307179586 -2.513274122871834  -2.513274122871834 -0.6283185307179586 -2.513274122871834  -1.884955592153876 -0.6283185307179586 -2.513274122871834  -1.256637061435917 -0.6283185307179586 -2.513274122871834  -0.6283185307179586 -0.6283185307179586 -2.513274122871834  0 -0.6283185307179586 -2.513274122871834  0.6283185307179586 -0.6283185307179586 -2.513274122871834  1.256637061435917 -0.6283185307179586 -2.513274122871834  1.884955592153876 -0.6283185307179586 -2.513274122871834  2.513274122871834 -0.6283185307179586 -2.513274122871834  3.141592653589793 -0.6283185307179586 -2.513274122871834  -3.141592653589793 0 -2.513274122871834  -2.513274122871834 0 -2.513274122871834  -1.884955592153876 
[...]
<PointData  Vectors="f_11"> 
<DataArray  type="Float64"  Name="f_11"  NumberOfComponents="3" format="ascii">-1.7254792162312868e-14 2.0458850397019826e-14 1.0552853138844178e-15  -6.0762300734341945e-01 1.0834210477741351e-03 -2.1002685661470699e-03  -9.6116206306421581e-01 1.4352200279714349e-03 -6.3577286705870548e-04  -9.3255862301992576e-01 8.9679549138632782e-04 1.7621000226384984e-03  -5.6113430078533899e-01 1.8935770001272050e-04 1.7640377049546578e-03  1.0733978830893753e-14 -4.0265723898885401e-14 2.3513902162684274e-16  5.6113430078541271e-01 -1.8935770004060789e-04 -1.7640377049551197e-03  9.3255862301983705e-01 -8.9679549139955422e-04 -1.7621000226386589e-03  9.6116206306419927e-01 -1.4352200279552977e-03 6.3577286705952059e-04  6.0762300734339503e-01 -1.0834210477402152e-03 2.1002685661471771e-03  -1.7254792162312868e-14 2.0458850397019826e-14 1.0552853138844178e-15  -1.8935770005699731e-04 5.6113430078541870e-01 -1.7640377049551643e-03  -4.9577674974301278e-01 4.5019595569132359e-01 -3.8615248428905237e-03  -7.7947544904418165e-01 1.5812800660707835e-01 -2.6077100631571415e-03  -7.5052638680640615e-01 -2.0311580266470378e-01 -3.0058935823966274e-04  -4.4835609513825425e-01 -4.9577810219524920e-01 -2.4904952797351917e-04  1.0834210477823928e-03 -6.0762300734341257e-01 -2.1002685661466848e-03  4.5019595569132892e-01 -4.9577674974297908e-01 -3.8615248428906968e-03  7.5176510831759635e-01 -2.0413856719049744e-01 -3.6395907831332391e-03  7.8014308677834565e-01 1.5597517741547132e-01 -1.1698090404298313e-03  4.9577810219514901e-01 4.4835609513824209e-01 2.4904952797406165e-04  -1.8935770005699731e-04 5.6113430078541870e-01 -1.7640377049551643e-03  -8.9679549140193459e-04 9.3255862301983516e-01 -1.7621000226385910e-03  -2.0413856719050014e-01 7.5176510831761456e-01 -3.6395907831332439e-03  -3.0635919085754271e-01 2.7815740768262637e-01 -2.3721146389233446e-03  -2.7713826490435650e-01 -3.0653467814381863e-01 3.8771804357623719e-04  -1.5597517741542974e-01 -7.8014308677834499e-01 1.1698090404299107e-03  1.4352200279698656e-03 -9.6116206306422025e-01 -6.3577286705944307e-04  1.5812800660708234e-01 -7.7947544904413080e-01 -2.6077100631573440e-03  2.7815740768262154e-01 -3.0635919085754038e-01 -2.3721146389235680e-03  3.0653467814380336e-01 2.7713826490441512e-01 -3.8771804357623014e-04  2.0311580266466611e-01 7.5052638680639960e-01 3.0058935823885788e-04  -8.9679549140193459e-04 9.3255862301983516e-01 -1.7621000226385910e-03  -1.4352200279558155e-03 9.6116206306418794e-01 6.3577286705918741e-04  1.5597517741545808e-01 7.8014308677831512e-01 -1.1698090404304565e-03  2.7713826490441312e-01 3.0653467814380653e-01 -3.8771804357669542e-04  3.0635919085758473e-01 -2.7815740768264230e-01 2.3721146389232852e-03  2.0413856719051426e-01 -7.5176510831763910e-01 3.6395907831325348e-03  8.9679549138847042e-04 -9.3255862301989279e-01 1.7621000226389814e-03  -2.0311580266471010e-01 -7.5052638680640427e-01 -3.0058935823892770e-04  -3.0653467814381746e-01 -2.7713826490436977e-01 3.8771804357617154e-04  -2.7815740768265479e-01 3.0635919085754953e-01 2.3721146389232262e-03  -1.5812800660709814e-01 7.7947544904421306e-01 2.6077100631571306e-03  -1.4352200279558155e-03 9.6116206306418794e-01 6.3577286705918741e-04  -1.0834210477405936e-03 6.0762300734341745e-01 2.1002685661467529e-03  4.4835609513832825e-01 4.9577810219521806e-01 2.4904952797389891e-04  7.5052638680636863e-01 2.0311580266466081e-01 3.0058935823858710e-04  7.7947544904411603e-01 -1.5812800660708465e-01 2.6077100631570144e-03  4.9577674974296138e-01 -4.5019595569131288e-01 3.8615248428908321e-03  1.8935770001360963e-04 -5.6113430078536564e-01 1.7640377049551320e-03  -4.9577810219525181e-01 -4.4835609513828256e-01 -2.4904952797359940e-04  -7.8014308677835642e-01 -1.5597517741543349e-01 1.1698090404301024e-03  -7.5176510831758558e-01 2.0413856719051063e-01 3.6395907831326996e-03  -4.5019595569129572e-01 4.9577674974300040e-01 3.8615248428907531e-03  -1.0834210477405936e-03 6.0762300734341745e-01 2.1002685661467529e-03  1.9240733273828706e-14 -3.1116394150986428e-14 2.5882922731169027e-16  5.6113430078537319e-01 -1.8935770005469707e-04 -1.7640377049549369e-03  9.3255862301985237e-01 -8.9679549139889448e-04 -1.7621000226390553e-03  9.6116206306415941e-01 -1.4352200279582571e-03 6.3577286705941564e-04  6.0762300734337216e-01 -1.0834210477362863e-03 2.1002685661471632e-03  -1.9925201524389272e-14 1.7369463607570598e-14 3.2070382712789425e-17  -6.0762300734342556e-01 1.0834210477720142e-03 -2.1002685661470387e-03  -9.6116206306415353e-01 1.4352200279725768e-03 -6.3577286705886324e-04  -9.3255862301990755e-01 8.9679549138731705e-04 1.7621000226382868e-03  -5.6113430078534499e-01 1.8935770001734728e-04 1.7640377049546361e-03  1.9240733273828706e-14 -3.1116394150986428e-14 2.5882922731169027e-16  1.0834210477773201e-03 -6.0762300734343000e-01 -2.1002685661475362e-03  4.5019595569131993e-01 -4.9577674974300950e-01 -3.8615248428914865e-03  7.5176510831760091e-01 -2.0413856719050899e-01 -3.6395907831329108e-03  7.8014308677831246e-01 1.5597517741546291e-01 -1.1698090404305475e-03  4.9577810219521234e-01 4.4835609513829583e-01 2.4904952797366402e-04  -1.8935770006066945e-04 5.6113430078540860e-01 -1.7640377049546259e-03  -4.9577674974300451e-01 4.5019595569134829e-01 -3.8615248428906295e-03  -7.7947544904411548e-01 1.5812800660707632e-01 -2.6077100631576094e-03  -7.5052638680634887e-01 -2.0311580266469090e-01 -3.0058935823918352e-04  -4.4835609513823871e-01 -4.9577810219525198e-01 -2.4904952797416270e-04  1.0834210477773201e-03 -6.0762300734343000e-01 -2.1002685661475362e-03  1.4352200279730085e-03 -9.6116206306415963e-01 -6.3577286705906034e-04  1.5812800660709991e-01 -7.7947544904421440e-01 -2.6077100631573761e-03  2.7815740768263675e-01 -3.0635919085755609e-01 -2.3721146389238689e-03  3.0653467814376345e-01 2.7713826490439786e-01 -3.8771804357653171e-04  2.0311580266466120e-01 7.5052638680646211e-01 3.0058935823977246e-04  -8.9679549140138587e-04 9.3255862301985493e-01 -1.7621000226385960e-03  -2.0413856719049783e-01 7.5176510831760357e-01 -3.6395907831324906e-03  -3.0635919085755098e-01 2.7815740768262914e-01 -2.3721146389229452e-03  -2.7713826490435373e-01 -3.0653467814382107e-01 3.8771804357594922e-04  -1.5597517741544342e-01 -7.8014308677835686e-01 1.1698090404303858e-03  1.4352200279730085e-03 -9.6116206306415963e-01 -6.3577286705906034e-04  8.9679549138633444e-04 -9.3255862301990977e-01 1.7621000226386719e-03  -2.0311580266469390e-01 -7.5052638680636130e-01 -3.0058935823944796e-04  -3.0653467814378121e-01 -2.7713826490436483e-01 3.8771804357638616e-04  -2.7815740768267488e-01 3.0635919085754365e-01 2.3721146389233195e-03  -1.5812800660709597e-01 7.7947544904427790e-01 2.6077100631571905e-03  -1.4352200279534478e-03 9.6116206306410390e-01 6.3577286705949359e-04  1.5597517741547054e-01 7.8014308677835653e-01 -1.1698090404302700e-03  2.7713826490440185e-01 3.0653467814379076e-01 -3.8771804357617528e-04  3.0635919085758323e-01 -2.7815740768266223e-01 2.3721146389233515e-03  2.0413856719051443e-01 -7.5176510831761356e-01 3.6395907831322807e-03  8.9679549138633444e-04 -9.3255862301990977e-01 1.7621000226386719e-03  1.8935770002361890e-04 -5.6113430078537407e-01 1.7640377049550238e-03  -4.9577810219525242e-01 -4.4835609513826280e-01 -2.4904952797336787e-04  -7.8014308677832656e-01 -1.5597517741542899e-01 1.1698090404299328e-03  -7.5176510831760268e-01 2.0413856719052043e-01 3.6395907831329728e-03  -4.5019595569130799e-01 4.9577674974299663e-01 3.8615248428912952e-03  -1.0834210477379256e-03 6.0762300734343544e-01 2.1002685661472825e-03  4.4835609513832775e-01 4.9577810219530516e-01 2.4904952797365145e-04  7.5052638680641148e-01 2.0311580266466839e-01 3.0058935823876637e-04  7.7947544904419219e-01 -1.5812800660709708e-01 2.6077100631576055e-03  4.9577674974298863e-01 -4.5019595569132193e-01 3.8615248428914462e-03  1.8935770002361890e-04 -5.6113430078537407e-01 1.7640377049550238e-03  -1.7254792162312868e-14 2.0458850397019826e-14 1.0552853138844178e-15  -6.0762300734341945e-01 1.0834210477741351e-03 -2.1002685661470699e-03  -9.6116206306421581e-01 1.4352200279714349e-03 -6.3577286705870548e-04  -9.3255862301992576e-01 8.9679549138632782e-04 1.7621000226384984e-03  -5.6113430078533899e-01 1.8935770001272050e-04 1.7640377049546578e-03  1.0733978830893753e-14 -4.0265723898885401e-14 2.3513902162684274e-16  5.6113430078541271e-01 -1.8935770004060789e-04 -1.7640377049551197e-03  9.3255862301983705e-01 -8.9679549139955422e-04 -1.7621000226386589e-03  9.6116206306419927e-01 -1.4352200279552977e-03 6.3577286705952059e-04  6.0762300734339503e-01 -1.0834210477402152e-03 2.1002685661471771e-03  -1.7254792162312868e-14 2.0458850397019826e-14 1.0552853138844178e-15  -3.0489772626564825e-03 -1.6027053462941221e-03 6.1451214346489851e-03  -4.8668845464172716e-01 -1.0346306488878258e-03 3.1258552004862095e-03  -7.7178945022844869e-01 -1.3318596494798791e-03 1.3214774069770949e-04  -7.5536206527989103e-01 -2.2033249969667717e-03 1.3670350513001290e-03  -4.5962765244074788e-01 -2.8818540488529058e-03 4.8115816393869935e-03  -1.6027053462982852e-03 -3.0489772626603267e-03 6.1451214346489565e-03  4.5965975565779560e-01 -3.2184854902655999e-03 3.7330231134206568e-03  7.6024499603786810e-01 -3.5647853492761024e-03 3.2594508818090893e-04  7.7563070759883856e-01 -3.4715421079666142e-03 5.5803885228728910e-04  4.8423423340276606e-01 -2.6549924740224273e-03 4.4136727711692053e-03  -3.0489772626564825e-03 -1.6027053462941221e-03 6.1451214346489851e-03  -3.2184854902535020e-03 4.5965975565791373e-01 3.7330231134208133e-03  -3.9612082181227315e-01 3.6951975319369523e-01 7.0360361527483479e-04  -6.2478347425498160e-01 1.3277719689227269e-01 -2.4857399808194025e-03  -6.0820381842859239e-01 -1.5982872847208099e-01 -1.5323982488306160e-03  -3.6856196611071929e-01 -3.9651334476787026e-01 1.8065152975588953e-03  -1.0346306488941050e-03 -4.8668845464174049e-01 3.1258552004858110e-03  3.6951975319365793e-01 -3.9612082181230246e-01 7.0360361527493269e-04  6.1369022007958218e-01 -1.6003225789867892e-01 -2.5323853092541807e-03  6.2896436883027751e-01 1.3176905192529420e-01 -2.0128299952369491e-03  3.9359231937139094e-01 3.6859845070190761e-01 1.9782305140810669e-03  -3.2184854902535020e-03 4.5965975565791373e-01 3.7330231134208133e-03  -3.5647853492747467e-03 7.6024499603788154e-01 3.2594508818157880e-04  -1.6003225789868858e-01 6.1369022007959151e-01 -2.5323853092540120e-03  -2.4209170037976407e-01 2.3031496111096320e-01 -5.7301470685307918e-03  -2.2559615042481340e-01 -2.4296947439277722e-01 -4.8965826455987307e-03  -1.3256540735730177e-01 -6.2587453108035840e-01 -1.3379229036049748e-03  -1.3318596494837427e-03 -7.7178945022855217e-01 1.3214774069798254e-04  1.3277719689226222e-01 -6.2478347425500613e-01 -2.4857399808196345e-03  2.3031496111095573e-01 -2.4209170037975786e-01 -5.7301470685308083e-03  2.4576744493728653e-01 2.3032303290403244e-01 -5.0848915471166769e-03  1.5696804078027998e-01 6.1338486813796378e-01 -1.2861065453211547e-03  -3.5647853492747467e-03 7.6024499603788154e-01 3.2594508818157880e-04  -3.4715421079682001e-03 7.7563070759884412e-01 5.5803885228663207e-04  1.3176905192529903e-01 6.2896436883027995e-01 -2.0128299952370593e-03  2.3032303290402603e-01 2.4576744493730665e-01 -5.0848915471167185e-03  2.4648411179422378e-01 -2.2719485233918468e-01 -4.2546003743451216e-03  1.5841431930534117e-01 -6.0975739872217838e-01 -3.2113498200887417e-04  -2.2033249969665397e-03 -7.5536206527991023e-01 1.3670350512998090e-03  -1.5982872847208601e-01 -6.0820381842858595e-01 -1.5323982488306305e-03  -2.4296947439278826e-01 -2.2559615042480893e-01 -4.8965826455990291e-03  -2.2719485233916720e-01 2.4648411179420587e-01 -4.2546003743454495e-03  -1.3483798540017308e-01 6.2910931183866181e-01 -8.3787262098738372e-04  -3.4715421079682001e-03 7.7563070759884412e-01 5.5803885228663207e-04  -2.6549924740198972e-03 4.8423423340280503e-01 4.4136727711697804e-03  3.6859845070191261e-01 3.9359231937138545e-01 1.9782305140810478e-03  6.1338486813791238e-01 1.5696804078028795e-01 -1.2861065453215006e-03  6.2910931183868690e-01 -1.3483798540016831e-01 -8.3787262098776656e-04  3.9408997878303503e-01 -3.7040065743728062e-01 3.0763498903297942e-03  -2.8818540488552992e-03 -4.5962765244078113e-01 4.8115816393867680e-03  -3.9651334476788253e-01 -3.6856196611068420e-01 1.8065152975588095e-03  -6.2587453108035407e-01 -1.3256540735729822e-01 -1.3379229036048180e-03  -6.0975739872219559e-01 1.5841431930534253e-01 -3.2113498200908564e-04  -3.7040065743730199e-01 3.9408997878302421e-01 3.0763498903297859e-03  -2.6549924740198972e-03 4.8423423340280503e-01 4.4136727711697804e-03  -1.6027053462848253e-03 -3.0489772626585139e-03 6.1451214346482930e-03  4.5965975565788086e-01 -3.2184854902641735e-03 3.7330231134212631e-03  7.6024499603785456e-01 -3.5647853492699420e-03 3.2594508818095864e-04  7.7563070759884667e-01 -3.4715421079665014e-03 5.5803885228686843e-04  4.8423423340277827e-01 -2.6549924740176577e-03 4.4136727711694083e-03  -3.0489772626650325e-03 -1.6027053462879678e-03 6.1451214346486026e-03  -4.8668845464176419e-01 -1.0346306488845255e-03 3.1258552004857750e-03  -7.7178945022843415e-01 -1.3318596494791841e-03 1.3214774069795327e-04  -7.5536206527995142e-01 -2.2033249969676690e-03 1.3670350512991292e-03  -4.5962765244078579e-01 -2.8818540488550069e-03 4.8115816393866674e-03  -1.6027053462848253e-03 -3.0489772626585139e-03 6.1451214346482930e-03  -1.0346306488827901e-03 -4.8668845464172761e-01 3.1258552004856058e-03  3.6951975319367497e-01 -3.9612082181228486e-01 7.0360361527466132e-04  6.1369022007959517e-01 -1.6003225789867931e-01 -2.5323853092541300e-03  6.2896436883028006e-01 1.3176905192530436e-01 -2.0128299952370931e-03  3.9359231937134670e-01 3.6859845070190850e-01 1.9782305140804758e-03  -3.2184854902603155e-03 4.5965975565785083e-01 3.7330231134207062e-03  -3.9612082181230135e-01 3.6951975319366209e-01 7.0360361527522543e-04  -6.2478347425503922e-01 1.3277719689226294e-01 -2.4857399808200708e-03  -6.0820381842860549e-01 -1.5982872847208640e-01 -1.5323982488306008e-03  -3.6856196611073028e-01 -3.9651334476789857e-01 1.8065152975585564e-03  -1.0346306488827901e-03 -4.8668845464172761e-01 3.1258552004856058e-03  -1.3318596494845312e-03 -7.7178945022851431e-01 1.3214774069744131e-04  1.3277719689226036e-01 -6.2478347425502057e-01 -2.4857399808202842e-03  2.3031496111095401e-01 -2.4209170037976846e-01 -5.7301470685313183e-03  2.4576744493729605e-01 2.3032303290403089e-01 -5.0848915471168607e-03  1.5696804078027843e-01 6.1338486813794535e-01 -1.2861065453212072e-03  -3.5647853492698114e-03 7.6024499603793327e-01 3.2594508818126395e-04  -1.6003225789867701e-01 6.1369022007954166e-01 -2.5323853092543689e-03  -2.4209170037976940e-01 2.3031496111095695e-01 -5.7301470685305420e-03  -2.2559615042480657e-01 -2.4296947439279865e-01 -4.8965826455989745e-03  -1.3256540735731628e-01 -6.2587453108034075e-01 -1.3379229036052352e-03  -1.3318596494845312e-03 -7.7178945022851431e-01 1.3214774069744131e-04  -2.2033249969676412e-03 -7.5536206527996530e-01 1.3670350513000883e-03  -1.5982872847208529e-01 -6.0820381842860449e-01 -1.5323982488305544e-03  -2.4296947439277744e-01 -2.2559615042482345e-01 -4.8965826455992789e-03  -2.2719485233920811e-01 2.4648411179423932e-01 -4.2546003743455917e-03  -1.3483798540015904e-01 6.2910931183857777e-01 -8.3787262098671867e-04  -3.4715421079647849e-03 7.7563070759892450e-01 5.5803885228753391e-04  1.3176905192531346e-01 6.2896436883034768e-01 -2.0128299952362739e-03  2.3032303290401390e-01 2.4576744493729349e-01 -5.0848915471167150e-03  2.4648411179421326e-01 -2.2719485233919812e-01 -4.2546003743450965e-03  1.5841431930535457e-01 -6.0975739872222301e-01 -3.2113498200873436e-04  -2.2033249969676412e-03 -7.5536206527996530e-01 1.3670350513000883e-03  -2.8818540488504498e-03 -4.5962765244079701e-01 4.8115816393867455e-03  -3.9651334476789613e-01 -3.6856196611073572e-01 1.8065152975587047e-03  -6.2587453108034830e-01 -1.3256540735730205e-01 -1.3379229036045914e-03  -6.0975739872219270e-01 1.5841431930534375e-01 -3.2113498200873739e-04  -3.7040065743725020e-01 3.9408997878303648e-01 3.0763498903302001e-03  -2.6549924740240419e-03 4.8423423340278443e-01 4.4136727711699426e-03  3.6859845070190611e-01 3.9359231937142586e-01 1.9782305140809337e-03  6.1338486813797632e-01 1.5696804078027393e-01 -1.2861065453214657e-03  6.2910931183866881e-01 -1.3483798540017078e-01 -8.3787262098752153e-04  3.9408997878300944e-01 -3.7040065743726247e-01 3.0763498903299503e-03  -2.8818540488504498e-03 -4.5962765244079701e-01 4.8115816393867455e-03  -3.0489772626564825e-03 -1.6027053462941221e-03 6.1451214346489851e-03  -4.8668845464172716e-01 -1.0346306488878258e-03 3.1258552004862095e-03  -7.7178945022844869e-01 -1.3318596494798791e-03 1.3214774069770949e-04  -7.5536206527989103e-01 -2.2033249969667717e-03 1.3670350513001290e-03  -4.5962765244074788e-01 -2.8818540488529058e-03 4.8115816393869935e-03  -1.6027053462982852e-03 -3.0489772626603267e-03 6.1451214346489565e-03  4.5965975565779560e-01 -3.2184854902655999e-03 3.7330231134206568e-03  7.6024499603786810e-01 -3.5647853492761024e-03 3.2594508818090893e-04  7.7563070759883856e-01 -3.4715421079666142e-03 5.5803885228728910e-04  4.8423423340276606e-01 -2.6549924740224273e-03 4.4136727711692053e-03  -3.0489772626564825e-03 -1.6027053462941221e-03 6.1451214346489851e-03  -2.3872331201452647e-03 -4.8928986358017315e-04 3.8155029771928155e-03  -1.7769592220275895e-01 -4.5898232352953837e-04 4.0388244610335376e-03  -2.8891181425801143e-01 -9.7717738181953332e-04 1.1589539394838593e-03  -2.9297712375762580e-01 -1.7105973461047739e-03 -6.8352649463361526e-04  -1.8376444783627743e-01 -2.2259353099648993e-03 1.0136352364000995e-03  -4.8928986357808357e-04 -2.3872331201416296e-03 3.8155029771940784e-03  1.8470232360661998e-01 -2.3497768043580277e-03 4.0599468424970739e-03  2.9645955945421332e-01 -2.1607040784894591e-03 1.5009871530371152e-03  2.9093823798944579e-01 -1.6945002020754890e-03 -5.0914755262161779e-04  1.7528082310162785e-01 -1.0194337258221549e-03 8.6735709932611962e-04  -2.3872331201452647e-03 -4.8928986358017315e-04 3.8155029771928155e-03  -2.3497768043555822e-03 1.8470232360661792e-01 4.0599468424971606e-03  -1.4291329837593530e-01 1.5001683975227920e-01 4.2849568993547724e-03  -2.3260745409898193e-01 5.9148725972168886e-02 1.4036140525257592e-03  -2.3672773660027907e-01 -5.2978513353196519e-02 -4.7261528587988776e-04  -1.4904380629343411e-01 -1.4340260016403103e-01 1.2149930569787764e-03  -4.5898232352555268e-04 -1.7769592220276709e-01 4.0388244610342133e-03  1.5001683975227142e-01 -1.4291329837591496e-01 4.2849568993552634e-03  2.4027631593308416e-01 -5.2361316107977889e-02 1.7312911812358668e-03  2.3479923800170796e-01 5.9485847002420766e-02 -2.4201414207810498e-04  1.4063952930626289e-01 1.5003946735194509e-01 1.1391856506143372e-03  -2.3497768043555822e-03 1.8470232360661792e-01 4.0599468424971606e-03  -2.1607040784857048e-03 2.9645955945420804e-01 1.5009871530370976e-03  -5.2361316107981955e-02 2.4027631593309365e-01 1.7312911812359456e-03  -8.6174096587497764e-02 9.3482368351592307e-02 -1.1470805458071627e-03  -9.0608683010468760e-02 -8.7553922187163735e-02 -3.1675465797610684e-03  -5.9170012545340399e-02 -2.3355314227290103e-01 -1.6445722299492887e-03  -9.7717738182142525e-04 -2.8891181425803070e-01 1.1589539394838619e-03  5.9148725972165875e-02 -2.3260745409897868e-01 1.4036140525256085e-03  9.3482368351598552e-02 -8.6174096587497070e-02 -1.1470805458073234e-03  8.8297373655799982e-02 9.4521678153257987e-02 -2.9666592764355827e-03  5.0406287027028381e-02 2.4066619886839846e-01 -1.4294676739398254e-03  -2.1607040784857048e-03 2.9645955945420804e-01 1.5009871530370976e-03  -1.6945002020756911e-03 2.9093823798942681e-01 -5.0914755262103568e-04  5.9485847002416603e-02 2.3479923800168168e-01 -2.4201414207805394e-04  9.4521678153237115e-02 8.8297373655778527e-02 -2.9666592764355996e-0