<?xml version="1.0"?>
<VTKFile type="UnstructuredGrid"  version="0.1"  >
<UnstructuredGrid>
<Piece  NumberOfPoints="1380" NumberOfCells="2630">
<Points>
<DataArray  type="Float64"  NumberOfComponents="3"  format="ascii">-1 -1 0  1 -1 0  1 1 0  -1 1 0  0 -1 0  1 0 0  0 1 0  -1 0 0  0 0 0  -1 -0.5 0  -0.5 -1 0  -0.5 1 0  -1 0.5 0  1 -0.5 0  0.5 -1 0  1 0.5 0  0.5 1 0  0.4166666666666666 -0.4166666666666667 0  -0.4166666666666667 0.4166666666666667 0  -0.25 -0.5 0  0.5 0.25 0  -0.4861111111111112 -0.06944444444444445 0  0.0732758620689655 0.507183908045977 0  -0.625 -0.625 0  0.625 0.625 0  0.7380952380952381 -0.25 0  -0.7099116161616161 0.2105429292929293 0  -0.25 0.7380952380952381 0  0.105392156862745 -0.6348039215686275 0  0.6770833333333334 -0.6770833333333333 0  -0.6770833333333334 0.6770833333333334 0  0.3472222222222222 -0.06944444444444446 0  -0.7264957264957265 -0.3044871794871795 0  0.3141940982507127 0.7297313660835709 0  0.02049587951122483 -0.3227479397556124 0  -0.2690972222222223 0.1475694444444444 0  0.3859500089908372 -0.7274430156831472 0  -0.2228477945123298 -0.1761765495248019 0  0.2182539682539683 0.1884920634920635 0  0.75 0.375 0  -0.145442219440968 -0.7602211097204841 0  0.7088913690476191 0.0427827380952381 0  -0.75 -1 0  -1 -0.75 0  1 0.75 0  0.75 1 0  -0.7439982703698937 -0.04614153195464455 0  -0.4609235096577606 -0.3356498099556895 0  0.4063134471431929 0.4895621842856023 0  0.25 -1 0  -0.25 -1 0  -0.75 1 0  0.75 -1 0  -1 -0.25 0  -1 0.25 0  1 -0.25 0  -0.25 1 0  1 -0.75 0  -1 0.75 0  0.25 1 0  1 0.25 0  -0.4041423272138783 -0.7597141090712928 0  0.06500839607911253 0.7578103030529481 0  -0.1572801182352047 0.3838997021864289 0  -0.6528005242053915 0.4409494757946086 0  -0.4930160984848485 0.1544744318181818 0  -0.4732142857142858 0.7752976190476191 0  0.6398809523809523 -0.4538690476190476 0  0.5166054117396399 -0.2161233620965164 0  -0.002273787244753427 0.2232363985975174 0  0.1500564496765022 -0.1524955293952667 0  0.2016720420046758 -0.4410343282803009 0  -0.08495178036419618 0.6274139771124571 0  -0.8367311471133162 0.3642591720794645 0  -0.8333333333333334 -0.625 0  -0.594323836800685 -0.8231079456002283 0  -0.4466957714776065 -0.5349126855671806 0  0.8125 0.5625 0  0.78125 0.78125 0  0.5091392650016769 0.7947130883338923 0  0.125 -0.8382681931833136 0  -0.8184523809523809 -0.8184523809523809 0  -0.07781530426104531 -0.5819319697006881 0  0.5085055196703295 0.04967610411902112 0  0.2918471072074933 -0.276017202318847 0  0.5120763537765269 -0.5898771553229597 0  0.625 -0.8585349462365591 0  0.8158532234335381 -0.8158532234335381 0  -0.5198088446315396 0.5739411553684605 0  -0.8585349462365591 0.625 0  -0.8150493805516597 0.8156205699829586 0  0.8585349462365591 -0.625 0  -0.2688268348649726 0.5439331383603209 0  0.8242100426758139 -0.4436043596336612 0  0.5833756314287952 0.4479378157143976 0  0.8690476190476191 -0.125 0  -0.125 0.8690476190476191 0  -0.8692745600729823 0.125 0  0.8696725120759167 0.125 0  -0.625 0.8711516477451908 0  0.2339522463269718 0.3879558377955778 0  0.2453709502295031 0.5655822922838026 0  0.1730610651637797 0.02021709580868947 0  0.3245402594056757 -0.5644672020485209 0  -0.7291666666666666 -0.4816595441595442 0  -1 -0.375 0  -0.5811140848639904 -0.2127276307675001 0  0.673332592838314 0.2158348143233718 0  0.375 1 0  -0.5714768890989919 0.2985103444040069 0  -1 -0.125 0  -0.8453692574786325 -0.1875 0  -0.3144549134065865 -0.02408675326008025 0  -0.2898414972096258 -0.3336092734780093 0  -0.1075052092206287 -0.4224330421314983 0  -0.05043970703604117 -0.1652278959397459 0  0.6459672950297897 -0.1113415301525317 0  0.4645210271029513 0.6398480556579343 0  0.3512863754411909 0.0937979496253573 0  -0.6063160985568274 0.03891469652249891 0  -0.3428819444444445 0.8690476190476191 0  0.625 1 0  -0.1602164796159982 0.02697860906625157 0  0.04648110064133829 -0.4808416424239687 0  1 0.875 0  -0.3836102479201657 0.6484936449177356 0  -0.3776011723096096 0.263078478984336 0  -0.6024978259969829 -0.3949628096211138 0  0.125 1 0  0.2010781308272777 0.8456221018461906 0  0.2822509696388829 -0.845902544691141 0  -0.3285533674953515 -0.6289773550938936 0  0.3461306793221754 0.278777492464833 0  0.4737475672408696 -0.8508448959534423 0  0.2384632828836344 -0.7029523187242811 0  -0.004777287059791593 0.3759269695907358 0  -0.8499735021850066 -0.3912320205328522 0  0.1222536293721587 0.2963971539625205 0  -0.3769456520999688 -0.203572526805711 0  -0.2749617205755651 -0.8464290792698902 0  0.004805888512766143 -0.747174355248311 0  -0.125 -1 0  -0.06001061822252458 -0.8724007765244854 0  0.875 0.4375 0  0.854421179608893 0.271342359217786 0  0.875 1 0  -0.1499861095763589 0.2358309656934888 0  0.3381943639137225 0.8663061796405532 0  -0.7853090110442228 0.4998412775277108 0  0.7398165998560814 -0.5535192694951373 0  0.1580042122341573 -0.3100246140259917 0  -0.7291666666666667 -0.7142857142857142 0  -0.375 -1 0  0.6483368386154684 0.8514905990110488 0  -0.1295370103291928 -0.2826118305021242 0  0.07458201853700455 0.1123894386563915 0  0.6146465857036327 -0.3161203659316075 0  0.5551898493894731 -0.740296118159085 0  0.375 -1 0  0.482702798370208 -0.084133350091034 0  0.87890625 0.68359375 0  -0.05917195534525846 0.4971092425697621 0  0.1260710309213975 0.6343750312956699 0  0.8690476190476191 -0.3077066815262848 0  -0.2912010232560567 0.3668168386732139 0  -0.875 1 0  -1 0.875 0  1 -0.875 0  0.875 -1 0  -0.8689564281364567 -0.006189266075306407 0  -0.7449425635110547 0.08458938160051771 0  -0.7150266761936593 -0.1739444581417552 0  -0.5260034831318311 -0.711099823962112 0  -0.4724626808827322 -0.871722230709409 0  0.4734436795977052 0.377714794132168 0  -0.875 -1 0  -1 -0.875 0  0.6927189078571988 0.5156567235715964 0  -0.3742497615796874 -0.4296005251260107 0  -0.1969436423297711 -0.6387157229772615 0  -0.6179496409766825 -0.08933356056510935 0  -0.424405057115988 0.04452428810878029 0  -0.08479048335844169 0.1279607007132633 0  0.003830300099055113 0.8712085230656206 0  0.8748778838820267 -1.379218479898026e-05 0  -0.375 1 0  -0.625 1 0  1 0.125 0  -0.125 1 0  1 -0.375 0  1 -0.125 0  1 -0.625 0  0.625 -1 0  0.125 -1 0  -0.625 -1 0  -1 -0.625 0  -1 0.125 0  -1 0.375 0  -1 0.625 0  1 0.375 0  1 0.625 0  0.6325660748712082 0.3335187599557389 0  -0.06420945895056573 0.7549874027425891 0  -0.8769015540914771 0.2478802253893416 0  0.871875 0.871875 0  -0.6868091492840067 0.3270978624973681 0  -0.5363597469565949 0.412994850055505 0  -0.6803734992638302 0.5574295000651103 0  -0.7076253581162534 -0.8803439094224437 0  -0.8778089002295137 -0.5106896447504627 0  -0.3860184984222981 0.530566778071246 0  0.6109900617121508 0.1128453077697081 0  0.3896945134930274 -0.1915382873255086 0  0.7605656944697778 -0.06822134873122943 0  0.3576151269893478 0.5948388411612135 0  -0.5689902680792265 -0.5143596830118065 0  0.6262446286847614 -0.5735657901943212 0  0.2030558252325225 -0.5625263842513452 0  0.6123273142928579 0.7407533260723429 0  0.4016460890123554 -0.3042863223111857 0  -0.59039693199147 0.7578418819188018 0  0.7276932493917544 -0.3705808024528924 0  0.5222536818742854 -0.4713886230400014 0  -0.5101986527137737 0.8848365765607674 0  0.510560172809238 0.5356013299918891 0  -0.3603569195756083 0.75823710606415 0  0.1967279277813232 0.728226870058472 0  -0.6086880986371127 0.1545624071548516 0  -0.38105366729386 0.1511189987807864 0  -0.2944659463671584 -0.7359061804869591 0  0.5060729154966499 -0.3475227845833823 0  -0.09281616240412746 -0.06197858250969457 0  0.7649739583333334 0.6673177083333334 0  0.7628906249999999 0.890234375 0  -0.2666864184909611 0.2585504071132311 0  0.3635064892129658 0.3878003602709461 0  -0.2339409722222222 0.8901937905844155 0  -0.1718792125974916 -0.8957733325456778 0  0.1001768566329531 0.4023510017391879 0  0.3120260172693757 -0.4540546875576884 0  0.7804062804433681 0.1896628610854537 0  0.4087715451998049 0.187961780041608 0  -0.1584963477271457 0.5451611892421655 0  -0.8926817849258324 0.463022006336401 0  0.2338091473445219 -0.07576267331277289 0  0.08171112182813692 -0.2349087687359925 0  0.04635385178956847 -0.1044635073718474 0  -0.4377391632114205 -0.6448874471423088 0  -0.1907678351227189 0.6480215912813945 0  0.300605946475244 0.4741444604171038 0  -0.2145033720757486 -0.06751709909419711 0  0.6069191921170397 -0.005492331448357812 0  0.0214718770761248 0.6032397936031719 0  0.5476675683364878 0.8992752415326501 0  0.4387475014316537 0.9093708953002239 0  -0.4932997685306436 -0.4381009159993523 0  0.2515197695339056 -0.1791673369138964 0  -0.7291666666666667 -0.6088789682539681 0  -0.9166666666666667 -0.6875 0  0.620579540363709 -0.2122431523583302 0  -0.484950136419973 0.6719440339397442 0  0.2857044415400258 0.0137589173127316 0  -0.8945708364098356 -0.288306105327986 0  0.4043102720140535 0.7842914560451557 0  0.04123256238752064 -0.9026968245801402 0  0.2003676884403109 -0.9091888601740487 0  0.1068775558538842 -0.7373377130403223 0  -0.4804566783514427 -0.1763307203045643 0  0.108286342087769 -0.3993789328997278 0  -0.191883080105361 -0.3640821726430649 0  -0.07025064492006244 0.2984876656890053 0  -0.7039324641409584 0.788312126296613 0  -0.7311286585775438 0.8932502354831682 0  0.5171409396884947 0.1503852691889257 0  0.4229392823658633 -0.003216522184234835 0  -0.5621736087218259 -0.919558629836806 0  -0.626474064879544 -0.7266572613636506 0  0.2446828746617422 0.2867616783302419 0  0.1759429608742923 0.4776611759306416 0  -0.3468240303741654 -0.5260416435617549 0  -0.7465808808425306 0.4069574477998361 0  -0.7819962170660292 0.2802441065650652 0  -0.3742623214119594 -0.8547800509641984 0  0.1014498009713561 0.8506721983266377 0  0.4285217620918213 -0.5230190595570253 0  0.4091738370487775 -0.6256346204225141 0  0.78125 0.46875 0  0.90625 0.53125 0  -0.4791801348852565 0.2553992655702126 0  0.7843318610782772 -0.7086046956885941 0  0.8909728264971901 -0.7355183796514634 0  0.7041908166528879 -0.7830649143180282 0  0.7311821352
[...]
<PointData  Vectors="f_22"> 
<DataArray  type="Float64"  Name="f_22"  NumberOfComponents="3" format="ascii">-2.8548680885775077e-03 -2.8971966212234571e-03 0.0000000000000000e+00  -2.8548680885775077e-03 -2.8971966212234571e-03 0.0000000000000000e+00  -2.8548680885775077e-03 -2.8971966212234571e-03 0.0000000000000000e+00  -2.8548680885775077e-03 -2.8971966212234571e-03 0.0000000000000000e+00  -2.8548661607295609e-03 -2.9072338799401394e-03 0.0000000000000000e+00  -2.8654845269423719e-03 -2.8971945707097829e-03 0.0000000000000000e+00  -2.8548661607295609e-03 -2.9072338799401394e-03 0.0000000000000000e+00  -2.8654845269423719e-03 -2.8971945707097829e-03 0.0000000000000000e+00  -2.8654845431309935e-03 -2.9072369843803438e-03 0.0000000000000000e+00  -2.7960409412613675e-03 -2.8971952499062268e-03 0.0000000000000000e+00  -2.8548678381830933e-03 -2.8380777767948477e-03 0.0000000000000000e+00  -2.8548678381830933e-03 -2.8380777767948477e-03 0.0000000000000000e+00  -2.9243125252764769e-03 -2.8971941172110044e-03 0.0000000000000000e+00  -2.7960409412613675e-03 -2.8971952499062268e-03 0.0000000000000000e+00  -2.8548658957327669e-03 -2.9663570216786677e-03 0.0000000000000000e+00  -2.9243125252764769e-03 -2.8971941172110044e-03 0.0000000000000000e+00  -2.8548658957327669e-03 -2.9663570216786677e-03 0.0000000000000000e+00  -2.7995993584233382e-03 -2.9654690534718598e-03 0.0000000000000000e+00  -2.9234985664515225e-03 -2.8415607489891714e-03 0.0000000000000000e+00  -2.7960427584510154e-03 -2.8604117606386326e-03 0.0000000000000000e+00  -2.9092803613102545e-03 -2.9663566822477794e-03 0.0000000000000000e+00  -2.8514780544086462e-03 -2.8383574830190914e-03 0.0000000000000000e+00  -2.9241749492632230e-03 -2.9217403991963022e-03 0.0000000000000000e+00  -2.7988939052298379e-03 -2.8410409597176274e-03 0.0000000000000000e+00  -2.9173978743512016e-03 -2.9595525576488080e-03 0.0000000000000000e+00  -2.8185781803175452e-03 -2.9458165802618182e-03 0.0000000000000000e+00  -2.9037604513332616e-03 -2.8484500740681091e-03 0.0000000000000000e+00  -2.9035774838207279e-03 -2.8604117017125867e-03 0.0000000000000000e+00  -2.7995255820007663e-03 -2.9278125265145469e-03 0.0000000000000000e+00  -2.8029108025367120e-03 -2.9540308250538636e-03 0.0000000000000000e+00  -2.9118356968598196e-03 -2.8450999972519119e-03 0.0000000000000000e+00  -2.8514791284843214e-03 -2.9614278824589687e-03 0.0000000000000000e+00  -2.8108224094901767e-03 -2.8503642859684492e-03 0.0000000000000000e+00  -2.9048128665510788e-03 -2.9585032521327391e-03 0.0000000000000000e+00  -2.8085352153245534e-03 -2.9113536066856464e-03 0.0000000000000000e+00  -2.8936045838472849e-03 -2.8575559271202008e-03 0.0000000000000000e+00  -2.8082499143737118e-03 -2.9640430052725359e-03 0.0000000000000000e+00  -2.8309800910339242e-03 -2.8647316411079525e-03 0.0000000000000000e+00  -2.9003798354820497e-03 -2.9467156863976522e-03 0.0000000000000000e+00  -2.9214624046970143e-03 -2.9440210114738399e-03 0.0000000000000000e+00  -2.8124346080157614e-03 -2.8784252971339607e-03 0.0000000000000000e+00  -2.8740302969566182e-03 -2.9499674974151229e-03 0.0000000000000000e+00  -2.8548670053059441e-03 -2.8533167381148191e-03 0.0000000000000000e+00  -2.8110747763738482e-03 -2.8971964468558699e-03 0.0000000000000000e+00  -2.9017717100863361e-03 -2.8971945671588208e-03 0.0000000000000000e+00  -2.8548675239695510e-03 -2.9440181946147554e-03 0.0000000000000000e+00  -2.8561636576634668e-03 -2.8525331970111426e-03 0.0000000000000000e+00  -2.8070221208701526e-03 -2.8391754025495972e-03 0.0000000000000000e+00  -2.9244521264179912e-03 -2.9650558243432446e-03 0.0000000000000000e+00  -2.8548662324252307e-03 -2.9511204600173153e-03 0.0000000000000000e+00  -2.8548661709821175e-03 -2.8604135100921951e-03 0.0000000000000000e+00  -2.8548670053059441e-03 -2.8533167381148191e-03 0.0000000000000000e+00  -2.8548675239695510e-03 -2.9440181946147554e-03 0.0000000000000000e+00  -2.8185779920751179e-03 -2.8971955876519713e-03 0.0000000000000000e+00  -2.9092799639082690e-03 -2.8971945406529613e-03 0.0000000000000000e+00  -2.8185779920751179e-03 -2.8971955876519713e-03 0.0000000000000000e+00  -2.8548661709821175e-03 -2.8604135100921951e-03 0.0000000000000000e+00  -2.8110747763738482e-03 -2.8971964468558699e-03 0.0000000000000000e+00  -2.9017717100863361e-03 -2.8971945671588208e-03 0.0000000000000000e+00  -2.8548662324252307e-03 -2.9511204600173153e-03 0.0000000000000000e+00  -2.9092799639082690e-03 -2.8971945406529613e-03 0.0000000000000000e+00  -2.8123669386109209e-03 -2.8424531539846943e-03 0.0000000000000000e+00  -2.9005527471613821e-03 -2.9201402904163514e-03 0.0000000000000000e+00  -2.9219860568199573e-03 -2.8762178869128976e-03 0.0000000000000000e+00  -2.9241895661095965e-03 -2.8430078997175295e-03 0.0000000000000000e+00  -2.8947898413626198e-03 -2.8382021949750510e-03 0.0000000000000000e+00  -2.8977402696195717e-03 -2.8387261628163929e-03 0.0000000000000000e+00  -2.7974786735934583e-03 -2.9581230228467783e-03 0.0000000000000000e+00  -2.8240307527946976e-03 -2.9660056025921202e-03 0.0000000000000000e+00  -2.9056148761200285e-03 -2.9067803433016305e-03 0.0000000000000000e+00  -2.8353239693164269e-03 -2.9358193084027301e-03 0.0000000000000000e+00  -2.7981154822497127e-03 -2.9442351614433469e-03 0.0000000000000000e+00  -2.9171701536662414e-03 -2.8901419691854356e-03 0.0000000000000000e+00  -2.9207634337581911e-03 -2.8663657728087624e-03 0.0000000000000000e+00  -2.7988933048545103e-03 -2.8658017678900405e-03 0.0000000000000000e+00  -2.8218336715857672e-03 -2.8394090905785201e-03 0.0000000000000000e+00  -2.7958473967352251e-03 -2.8398128694417219e-03 0.0000000000000000e+00  -2.9220448344433195e-03 -2.9336730791441304e-03 0.0000000000000000e+00  -2.8967580965160210e-03 -2.9390225889260697e-03 0.0000000000000000e+00  -2.8944872180763875e-03 -2.9661862840306913e-03 0.0000000000000000e+00  -2.8243354061194665e-03 -2.9314000223368310e-03 0.0000000000000000e+00  -2.8210809981733336e-03 -2.8633639390405379e-03 0.0000000000000000e+00  -2.7968036649816327e-03 -2.8915633672549480e-03 0.0000000000000000e+00  -2.8753906789160998e-03 -2.9661988994532798e-03 0.0000000000000000e+00  -2.8147087665360017e-03 -2.9561777483113573e-03 0.0000000000000000e+00  -2.7971013791582579e-03 -2.9661180423215675e-03 0.0000000000000000e+00  -2.8278111795557313e-03 -2.9595513661743911e-03 0.0000000000000000e+00  -2.8206658756012863e-03 -2.9330817302277174e-03 0.0000000000000000e+00  -2.9213641576200339e-03 -2.8378890884583783e-03 0.0000000000000000e+00  -2.9173978167752264e-03 -2.8701091557838737e-03 0.0000000000000000e+00  -2.8908384645294611e-03 -2.8628181590760471e-03 0.0000000000000000e+00  -2.7988927153543043e-03 -2.9252581006120994e-03 0.0000000000000000e+00  -2.9229690213852686e-03 -2.8575952329745954e-03 0.0000000000000000e+00  -2.7979797740490617e-03 -2.9315876601153433e-03 0.0000000000000000e+00  -2.9243213199564963e-03 -2.9628680231459530e-03 0.0000000000000000e+00  -2.8405348058234163e-03 -2.9232608736882420e-03 0.0000000000000000e+00  -2.8809541479008611e-03 -2.8823077097838773e-03 0.0000000000000000e+00  -2.8896229251978160e-03 -2.8720047881918378e-03 0.0000000000000000e+00  -2.8896233023905727e-03 -2.9231411920333438e-03 0.0000000000000000e+00  -2.8805533544446565e-03 -2.8410403833696190e-03 0.0000000000000000e+00  -2.9222106527616171e-03 -2.9489521835632890e-03 0.0000000000000000e+00  -2.9218690539985245e-03 -2.9505094548232316e-03 0.0000000000000000e+00  -2.8695468075883891e-03 -2.9396950680689138e-03 0.0000000000000000e+00  -2.7962835414969550e-03 -2.9594846957905784e-03 0.0000000000000000e+00  -2.7964544986251675e-03 -2.8506862495636717e-03 0.0000000000000000e+00  -2.8029539544014684e-03 -2.8971948395643634e-03 0.0000000000000000e+00  -2.8246013664719469e-03 -2.8388836815850613e-03 0.0000000000000000e+00  -2.9045426030539371e-03 -2.9544772791865203e-03 0.0000000000000000e+00  -2.8548661848734531e-03 -2.9633958999504099e-03 0.0000000000000000e+00  -2.9150256716347443e-03 -2.8385687193595941e-03 0.0000000000000000e+00  -2.8405360870253191e-03 -2.8971933396499568e-03 0.0000000000000000e+00  -2.8289570877924361e-03 -2.8678287778839007e-03 0.0000000000000000e+00  -2.8606232211953455e-03 -2.8514333610904232e-03 0.0000000000000000e+00  -2.8072575873656445e-03 -2.8546384927042889e-03 0.0000000000000000e+00  -2.7992175988518072e-03 -2.8857022151098418e-03 0.0000000000000000e+00  -2.8329712835939622e-03 -2.8970522682956437e-03 0.0000000000000000e+00  -2.8431820907563877e-03 -2.9575040055953186e-03 0.0000000000000000e+00  -2.9159618356175122e-03 -2.9665173899286737e-03 0.0000000000000000e+00  -2.8838842024635405e-03 -2.9617451827779824e-03 0.0000000000000000e+00  -2.8732674734274072e-03 -2.8399753275426959e-03 0.0000000000000000e+00  -2.8809548373921337e-03 -2.8481114151420379e-03 0.0000000000000000e+00  -2.8548653656187070e-03 -2.9595525616741185e-03 0.0000000000000000e+00  -2.8708960768687800e-03 -2.8756775230109497e-03 0.0000000000000000e+00  -2.7964768614296550e-03 -2.9165163523134415e-03 0.0000000000000000e+00  -2.8798135615081500e-03 -2.8971935993385677e-03 0.0000000000000000e+00  -2.9150671132280068e-03 -2.8441114783135739e-03 0.0000000000000000e+00  -2.9109459848433270e-03 -2.8446433465963241e-03 0.0000000000000000e+00  -2.8012229555446997e-03 -2.8397866212496034e-03 0.0000000000000000e+00  -2.8548664586430677e-03 -2.9313981623609923e-03 0.0000000000000000e+00  -2.8853774137055361e-03 -2.9441422543132348e-03 0.0000000000000000e+00  -2.8256294911550442e-03 -2.9550972953994547e-03 0.0000000000000000e+00  -2.7991435598464774e-03 -2.8497322725043136e-03 0.0000000000000000e+00  -2.9128370498907761e-03 -2.9613419151149939e-03 0.0000000000000000e+00  -2.8264756671063317e-03 -2.9665517634862170e-03 0.0000000000000000e+00  -2.8054811379478509e-03 -2.9495721360589455e-03 0.0000000000000000e+00  -2.9215182837692851e-03 -2.9062741209978440e-03 0.0000000000000000e+00  -2.8015280880563488e-03 -2.8686218889096477e-03 0.0000000000000000e+00  -2.9148025653881514e-03 -2.9309071502746763e-03 0.0000000000000000e+00  -2.8261599038397751e-03 -2.8447036851059868e-03 0.0000000000000000e+00  -2.8257189037906578e-03 -2.8567106788483024e-03 0.0000000000000000e+00  -2.8107052078704107e-03 -2.9082023758176868e-03 0.0000000000000000e+00  -2.8548656411851764e-03 -2.8823091896280221e-03 0.0000000000000000e+00  -2.8302611180787227e-03 -2.8951248305222762e-03 0.0000000000000000e+00  -2.9241160143099161e-03 -2.9221226590329689e-03 0.0000000000000000e+00  -2.9119566921690472e-03 -2.9260326213896705e-03 0.0000000000000000e+00  -2.8548664954961226e-03 -2.9221206232640648e-03 0.0000000000000000e+00  -2.9073811332899408e-03 -2.8775738776651094e-03 0.0000000000000000e+00  -2.8814806383131385e-03 -2.9606910229777223e-03 0.0000000000000000e+00  -2.9243137484435862e-03 -2.8582419118389447e-03 0.0000000000000000e+00  -2.7960568130972799e-03 -2.9455606874324329e-03 0.0000000000000000e+00  -2.8101130665321773e-03 -2.9371793459620509e-03 0.0000000000000000e+00  -2.8067260956959918e-03 -2.8506870009910134e-03 0.0000000000000000e+00  -2.8548670151091809e-03 -2.8448813762374323e-03 0.0000000000000000e+00  -2.8842807826471848e-03 -2.9572604296590984e-03 0.0000000000000000e+00  -2.8137752678311931e-03 -2.8814410265799026e-03 0.0000000000000000e+00  -2.8873361883690928e-03 -2.9219914449219076e-03 0.0000000000000000e+00  -2.8093465650481072e-03 -2.9604687569971793e-03 0.0000000000000000e+00  -2.8098269819129716e-03 -2.9645277950016446e-03 0.0000000000000000e+00  -2.8548661848734531e-03 -2.9633958999504099e-03 0.0000000000000000e+00  -2.8485434547239905e-03 -2.9665338345525980e-03 0.0000000000000000e+00  -2.9110401562917210e-03 -2.9213694480096420e-03 0.0000000000000000e+00  -2.9243560625483432e-03 -2.8952955648729414e-03 0.0000000000000000e+00  -2.9165040802536630e-03 -2.9315931606617748e-03 0.0000000000000000e+00  -2.8104061962133985e-03 -2.9232599034205637e-03 0.0000000000000000e+00  -2.9209354035318711e-03 -2.8544494720279976e-03 0.0000000000000000e+00  -2.8548680802524110e-03 -2.8730359684917359e-03 0.0000000000000000e+00  -2.8798135615081500e-03 -2.8971935993385677e-03 0.0000000000000000e+00  -2.8307303119664970e-03 -2.8971968938849746e-03 0.0000000000000000e+00  -2.8548664954961226e-03 -2.9221206232640648e-03 0.0000000000000000e+00  -2.8642366194742202e-03 -2.8719500747638807e-03 0.0000000000000000e+00  -2.8821431735135596e-03 -2.8526551281384768e-03 0.0000000000000000e+00  -2.8313818131332777e-03 -2.8490259012948680e-03 0.0000000000000000e+00  -2.8063686544089581e-03 -2.8378833965495612e-03 0.0000000000000000e+00  -2.8301445868181350e-03 -2.8387519913955642e-03 0.0000000000000000e+00  -2.9216275797468295e-03 -2.9665524562745606e-03 0.0000000000000000e+00  -2.8548680802524110e-03 -2.8730359684917359e-03 0.0000000000000000e+00  -2.8307303119664970e-03 -2.8971968938849746e-03 0.0000000000000000e+00  -2.9239741573959866e-03 -2.9520975083580300e-03 0.0000000000000000e+00  -2.7987688109913388e-03 -2.8449496440836851e-03 0.0000000000000000e+00  -2.7997955976308778e-03 -2.8691058220988701e-03 0.0000000000000000e+00  -2.8475129123669515e-03 -2.8406128201128086e-03 0.0000000000000000e+00  -2.8743753487442359e-03 -2.8410585061679600e-03 0.0000000000000000e+00  -2.8901585101209701e-03 -2.8901770449423297e-03 0.0000000000000000e+00  -2.8805379496191145e-03 -2.9080068369125400e-03 0.0000000000000000e+00  -2.8654807987736255e-03 -2.9221439390135317e-03 0.0000000000000000e+00  -2.8548670151091809e-03 -2.8448813762374323e-03 0.0000000000000000e+00  -2.8548661462495851e-03 -2.8410403631427936e-03 0.0000000000000000e+00  -2.8896220642126999e-03 -2.8971951382137625e-03 0.0000000000000000e+00  -2.8548656411851764e-03 -2.8823091896280221e-03 0.0000000000000000e+00  -2.8029539544014684e-03 -2.8971948395643634e-03 0.0000000000000000e+00  -2.8405360870253191e-03 -2.8971933396499568e-03 0.0000000000000000e+00  -2.7988930502717726e-03 -2.8971942957444104e-03 0.0000000000000000e+00  -2.8548653656187070e-03 -2.9595525616741185e-03 0.0000000000000000e+00  -2.8548664586430677e-03 -2.9313981623609923e-03 0.0000000000000000e+00  -2.8548661462495851e-03 -2.8410403631427936e-03 0.0000000000000000e+00  -2.7988930502717726e-03 -2.8971942957444104e-03 0.0000000000000000e+00  -2.8896220642126999e-03 -2.8971951382137625e-03 0.0000000000000000e+00  -2.9214620834662579e-03 -2.8971950418401346e-03 0.0000000000000000e+00  -2.9173983911473483e-03 -2.8971956266683522e-03 0.0000000000000000e+00  -2.9214620834662579e-03 -2.8971950418401346e-03 0.0000000000000000e+00  -2.9173983911473483e-03 -2.8971956266683522e-03 0.0000000000000000e+00  -2.9183916697640834e-03 -2.9588427446752552e-03 0.0000000000000000e+00  -2.9009958253297732e-03 -2.8942824382379817e-03 0.0000000000000000e+00  -2.9090032989953388e-03 -2.8733753841559428e-03 0.0000000000000000e+00  -2.8804154096268375e-03 -2.9227193014233978e-03 0.0000000000000000e+00  -2.9178245935233245e-03 -2.8460291188945703e-03 0.0000000000000000e+00  -2.9233625375621997e-03 -2.8379223691171319e-03 0.0000000000000000e+00  -2.9223168982811395e-03 -2.8454085923728333e-03 0.0000000000000000e+00  -2.8316938817701106e-03 -2.8482011044073403e-03 0.0000000000000000e+00  -2.7958997486332245e-03 -2.8735413298445673e-03 0.0000000000000000e+00  -2.9235045938716822e-03 -2.8439033642813942e-03 0.0000000000000000e+00  -2.8874206417423831e-03 -2.9607803130959160e-03 0.0000000000000000e+00  -2.8282461036613308e-03 -2.9642486167857744e-03 0.0000000000000000e+00  -2.8517207195583260e-03 -2.9423701075003148e-03 0.0000000000000000e+00  -2.9199271331863210e-03 -2.9622181333529792e-03 0.0000000000000000e+00  -2.7958687172970112e-03 -2.8385002771803827e-03 0.0000000000000000e+00  -2.7965301226578576e-03 -2.9594356521749367e-03 0.0000000000000000e+00  -2.7962377908742992e-03 -2.9444454369024235e-03 0.0000000000000000e+00  -2.9031802522561131e-03 -2.9606685433106860e-03 0.0000000000000000e+00  -2.8108474777561888e-03 -2.9648447613318113e-03 0.0000000000000000e+00  -2.9005474820791534e-03 -2.8392409443416910e-03 0.0000000000000000e+00  -2.8033670172634595e-03 -2.9473375084612019e-03 0.0000000000000000e+00  -2.7967757063352724e-03 -2.9658470977452570e-03 0.0000000000000000e+00  -2.8779094799904798e-03 -2.8379499561207461e-03 0.0000000000000000e+00  -2.9233187294555279e-03 -2.9661548436977921e-03 0.0000000000000000e+00  -2.9004844518703467e-03 -2.8462829096902510e-03 0.0000000000000000e+00  -2.9050303396469801e-03 -2.9434728610545366e-03 0.0000000000000000e+00  -2.8948033220207660e-03 -2.8400985509943631e-03 0.0000000000000000e+00  -2.8942157517171845e-03 -2.8443355442311475e-03 0.0000000000000000e+00  -2.8092810022460903e-03 -2.8540103809241886e-03 0.0000000000000000e+00  -2.8057052525346520e-03 -2.9662468854874274e-03 0.0000000000000000e+00  -2.8529761310265916e-03 -2.8885864773864783e-03 0.0000000000000000e+00  -2.9129890382860063e-03 -2.9416723922404430e-03 0.0000000000000000e+00  -2.8768586642985996e-03 -2.9420042308540796e-03 0.0000000000000000e+00  -2.9103787607595724e-03 -2.8579075120450260e-03 0.0000000000000000e+00  -2.9222023723919814e-03 -2.9626385552284965e-03 0.0000000000000000e+00  -2.8768634727796569e-03 -2.8629318707866528e-03 0.0000000000000000e+00  -2.8345230912663320e-03 -2.8735463911340286e-03 0.0000000000000000e+00  -2.9229209923354923e-03 -2.9268464690022076e-03 0.0000000000000000e+00  -2.7974710490140482e-03 -2.9582886554900480e-03 0.0000000000000000e+00  -2.9005641951036342e-03 -2.9391624624027926e-03 0.0000000000000000e+00  -2.9002989222413544e-03 -2.9651602878378270e-03 0.0000000000000000e+00  -2.9229142200797981e-03 -2.8759930065958886e-03 0.0000000000000000e+00  -2.9244951539874613e-03 -2.8762611748994393e-03 0.0000000000000000e+00  -2.8502156713207396e-03 -2.9489331239978297e-03 0.0000000000000000e+00  -2.8209534652054715e-03 -2.9233592629162135e-03 0.0000000000000000e+00  -2.8445315143870000e-03 -2.9164928769610287e-03 0.0000000000000000e+00  -2.8002396750579882e-03 -2.8402774092423123e-03 0.0000000000000000e+00  -2.9151179633680993e-03 -2.8701811644863706e-03 0.0000000000000000e+00  -2.9245315552798084e-03 -2.9571229538549884e-03 0.0000000000000000e+00  -2.8518653886719339e-03 -2.8661163994475546e-03 0.0000000000000000e+00  -2.8643769086911012e-03 -2.9611152662596075e-03 0.0000000000000000e+00  -2.9192739033958343e-03 -2.9115489169108982e-03 0.0000000000000000e+00  -2.8750868375853455e-03 -2.9648900090450676e-03 0.0000000000000000e+00  -2.8730941787904643e-03 -2.9661333955411963e-03 0.0000000000000000e+00  -2.7982772807205025e-03 -2.8381987914869186e-03 0.0000000000000000e+00  -2.8304417768785419e-03 -2.9513192385713970e-03 0.0000000000000000e+00  -2.7979780242217635e-03 -2.8506873826237228e-03 0.0000000000000000e+00  -2.8039026982642754e-03 -2.8807693827245517e-03 0.0000000000000000e+00  -2.8246802394791192e-03 -2.9599497531884451e-03 0.0000000000000000e+00  -2.9124470635829829e-03 -2.8383860915033943e-03 0.0000000000000000e+00  -2.8682526408894430e-03 -2.9554932937663637e-03 0.0000000000000000e+00  -2.8129840980650970e-03 -2.8766118188470898e-03 0.0000000000000000e+00  -2.8962523436488882e-03 -2.9649670352209791e-03 0.0000000000000000e+00  -2.8358111898170377e-03 -2.9154761109135125e-03 0.0000000000000000e+00  -2.8370319095004596e-03 -2.9440351081399816e-03 0.0000000000000000e+00  -2.8094567094178505e-03 -2.9280890887714126e-03 0.0000000000000000e+00  -2.8309543468793288e-03 -2.8385070612834359e-03 0.0000000000000000e+00  -2.8008690467534012e-03 -2.9283505249722190e-03 0.0000000000000000e+00  -2.8039992099830446e-03 -2.8699879713959741e-03 0.0000000000000000e+00  -2.9150240068971859e-03 -2.8930759211049290e-03 0.0000000000000000e+00  -2.8955734163222707e-03 -2.8477982444844552e-03 0.0000000000000000e+00  -2.8762682818585707e-03 -2.8509254422900473e-03 0.0000000000000000e+00  -2.8940904933650370e-03 -2.9659931074194927e-03 0.0000000000000000e+00  -2.8648358220242768e-03 -2.9656897786323479e-03 0.0000000000000000e+00  -2.8390013049562892e-03 -2.8383237720284236e-03 0.0000000000000000e+00  -2.8081596881888949e