<?xml version="1.0"?>
<VTKFile type="UnstructuredGrid"  version="0.1"  >
<UnstructuredGrid>
<Piece  NumberOfPoints="1380" NumberOfCells="2630">
<Points>
<DataArray  type="Float64"  NumberOfComponents="3"  format="ascii">-1 -1 0  1 -1 0  1 1 0  -1 1 0  0 -1 0  1 0 0  0 1 0  -1 0 0  0 0 0  -1 -0.5 0  -0.5 -1 0  -0.5 1 0  -1 0.5 0  1 -0.5 0  0.5 -1 0  1 0.5 0  0.5 1 0  0.4166666666666666 -0.4166666666666667 0  -0.4166666666666667 0.4166666666666667 0  -0.25 -0.5 0  0.5 0.25 0  -0.4861111111111112 -0.06944444444444445 0  0.0732758620689655 0.507183908045977 0  -0.625 -0.625 0  0.625 0.625 0  0.7380952380952381 -0.25 0  -0.7099116161616161 0.2105429292929293 0  -0.25 0.7380952380952381 0  0.105392156862745 -0.6348039215686275 0  0.6770833333333334 -0.6770833333333333 0  -0.6770833333333334 0.6770833333333334 0  0.3472222222222222 -0.06944444444444446 0  -0.7264957264957265 -0.3044871794871795 0  0.3141940982507127 0.7297313660835709 0  0.02049587951122483 -0.3227479397556124 0  -0.2690972222222223 0.1475694444444444 0  0.3859500089908372 -0.7274430156831472 0  -0.2228477945123298 -0.1761765495248019 0  0.2182539682539683 0.1884920634920635 0  0.75 0.375 0  -0.145442219440968 -0.7602211097204841 0  0.7088913690476191 0.0427827380952381 0  -0.75 -1 0  -1 -0.75 0  1 0.75 0  0.75 1 0  -0.7439982703698937 -0.04614153195464455 0  -0.4609235096577606 -0.3356498099556895 0  0.4063134471431929 0.4895621842856023 0  0.25 -1 0  -0.25 -1 0  -0.75 1 0  0.75 -1 0  -1 -0.25 0  -1 0.25 0  1 -0.25 0  -0.25 1 0  1 -0.75 0  -1 0.75 0  0.25 1 0  1 0.25 0  -0.4041423272138783 -0.7597141090712928 0  0.06500839607911253 0.7578103030529481 0  -0.1572801182352047 0.3838997021864289 0  -0.6528005242053915 0.4409494757946086 0  -0.4930160984848485 0.1544744318181818 0  -0.4732142857142858 0.7752976190476191 0  0.6398809523809523 -0.4538690476190476 0  0.5166054117396399 -0.2161233620965164 0  -0.002273787244753427 0.2232363985975174 0  0.1500564496765022 -0.1524955293952667 0  0.2016720420046758 -0.4410343282803009 0  -0.08495178036419618 0.6274139771124571 0  -0.8367311471133162 0.3642591720794645 0  -0.8333333333333334 -0.625 0  -0.594323836800685 -0.8231079456002283 0  -0.4466957714776065 -0.5349126855671806 0  0.8125 0.5625 0  0.78125 0.78125 0  0.5091392650016769 0.7947130883338923 0  0.125 -0.8382681931833136 0  -0.8184523809523809 -0.8184523809523809 0  -0.07781530426104531 -0.5819319697006881 0  0.5085055196703295 0.04967610411902112 0  0.2918471072074933 -0.276017202318847 0  0.5120763537765269 -0.5898771553229597 0  0.625 -0.8585349462365591 0  0.8158532234335381 -0.8158532234335381 0  -0.5198088446315396 0.5739411553684605 0  -0.8585349462365591 0.625 0  -0.8150493805516597 0.8156205699829586 0  0.8585349462365591 -0.625 0  -0.2688268348649726 0.5439331383603209 0  0.8242100426758139 -0.4436043596336612 0  0.5833756314287952 0.4479378157143976 0  0.8690476190476191 -0.125 0  -0.125 0.8690476190476191 0  -0.8692745600729823 0.125 0  0.8696725120759167 0.125 0  -0.625 0.8711516477451908 0  0.2339522463269718 0.3879558377955778 0  0.2453709502295031 0.5655822922838026 0  0.1730610651637797 0.02021709580868947 0  0.3245402594056757 -0.5644672020485209 0  -0.7291666666666666 -0.4816595441595442 0  -1 -0.375 0  -0.5811140848639904 -0.2127276307675001 0  0.673332592838314 0.2158348143233718 0  0.375 1 0  -0.5714768890989919 0.2985103444040069 0  -1 -0.125 0  -0.8453692574786325 -0.1875 0  -0.3144549134065865 -0.02408675326008025 0  -0.2898414972096258 -0.3336092734780093 0  -0.1075052092206287 -0.4224330421314983 0  -0.05043970703604117 -0.1652278959397459 0  0.6459672950297897 -0.1113415301525317 0  0.4645210271029513 0.6398480556579343 0  0.3512863754411909 0.0937979496253573 0  -0.6063160985568274 0.03891469652249891 0  -0.3428819444444445 0.8690476190476191 0  0.625 1 0  -0.1602164796159982 0.02697860906625157 0  0.04648110064133829 -0.4808416424239687 0  1 0.875 0  -0.3836102479201657 0.6484936449177356 0  -0.3776011723096096 0.263078478984336 0  -0.6024978259969829 -0.3949628096211138 0  0.125 1 0  0.2010781308272777 0.8456221018461906 0  0.2822509696388829 -0.845902544691141 0  -0.3285533674953515 -0.6289773550938936 0  0.3461306793221754 0.278777492464833 0  0.4737475672408696 -0.8508448959534423 0  0.2384632828836344 -0.7029523187242811 0  -0.004777287059791593 0.3759269695907358 0  -0.8499735021850066 -0.3912320205328522 0  0.1222536293721587 0.2963971539625205 0  -0.3769456520999688 -0.203572526805711 0  -0.2749617205755651 -0.8464290792698902 0  0.004805888512766143 -0.747174355248311 0  -0.125 -1 0  -0.06001061822252458 -0.8724007765244854 0  0.875 0.4375 0  0.854421179608893 0.271342359217786 0  0.875 1 0  -0.1499861095763589 0.2358309656934888 0  0.3381943639137225 0.8663061796405532 0  -0.7853090110442228 0.4998412775277108 0  0.7398165998560814 -0.5535192694951373 0  0.1580042122341573 -0.3100246140259917 0  -0.7291666666666667 -0.7142857142857142 0  -0.375 -1 0  0.6483368386154684 0.8514905990110488 0  -0.1295370103291928 -0.2826118305021242 0  0.07458201853700455 0.1123894386563915 0  0.6146465857036327 -0.3161203659316075 0  0.5551898493894731 -0.740296118159085 0  0.375 -1 0  0.482702798370208 -0.084133350091034 0  0.87890625 0.68359375 0  -0.05917195534525846 0.4971092425697621 0  0.1260710309213975 0.6343750312956699 0  0.8690476190476191 -0.3077066815262848 0  -0.2912010232560567 0.3668168386732139 0  -0.875 1 0  -1 0.875 0  1 -0.875 0  0.875 -1 0  -0.8689564281364567 -0.006189266075306407 0  -0.7449425635110547 0.08458938160051771 0  -0.7150266761936593 -0.1739444581417552 0  -0.5260034831318311 -0.711099823962112 0  -0.4724626808827322 -0.871722230709409 0  0.4734436795977052 0.377714794132168 0  -0.875 -1 0  -1 -0.875 0  0.6927189078571988 0.5156567235715964 0  -0.3742497615796874 -0.4296005251260107 0  -0.1969436423297711 -0.6387157229772615 0  -0.6179496409766825 -0.08933356056510935 0  -0.424405057115988 0.04452428810878029 0  -0.08479048335844169 0.1279607007132633 0  0.003830300099055113 0.8712085230656206 0  0.8748778838820267 -1.379218479898026e-05 0  -0.375 1 0  -0.625 1 0  1 0.125 0  -0.125 1 0  1 -0.375 0  1 -0.125 0  1 -0.625 0  0.625 -1 0  0.125 -1 0  -0.625 -1 0  -1 -0.625 0  -1 0.125 0  -1 0.375 0  -1 0.625 0  1 0.375 0  1 0.625 0  0.6325660748712082 0.3335187599557389 0  -0.06420945895056573 0.7549874027425891 0  -0.8769015540914771 0.2478802253893416 0  0.871875 0.871875 0  -0.6868091492840067 0.3270978624973681 0  -0.5363597469565949 0.412994850055505 0  -0.6803734992638302 0.5574295000651103 0  -0.7076253581162534 -0.8803439094224437 0  -0.8778089002295137 -0.5106896447504627 0  -0.3860184984222981 0.530566778071246 0  0.6109900617121508 0.1128453077697081 0  0.3896945134930274 -0.1915382873255086 0  0.7605656944697778 -0.06822134873122943 0  0.3576151269893478 0.5948388411612135 0  -0.5689902680792265 -0.5143596830118065 0  0.6262446286847614 -0.5735657901943212 0  0.2030558252325225 -0.5625263842513452 0  0.6123273142928579 0.7407533260723429 0  0.4016460890123554 -0.3042863223111857 0  -0.59039693199147 0.7578418819188018 0  0.7276932493917544 -0.3705808024528924 0  0.5222536818742854 -0.4713886230400014 0  -0.5101986527137737 0.8848365765607674 0  0.510560172809238 0.5356013299918891 0  -0.3603569195756083 0.75823710606415 0  0.1967279277813232 0.728226870058472 0  -0.6086880986371127 0.1545624071548516 0  -0.38105366729386 0.1511189987807864 0  -0.2944659463671584 -0.7359061804869591 0  0.5060729154966499 -0.3475227845833823 0  -0.09281616240412746 -0.06197858250969457 0  0.7649739583333334 0.6673177083333334 0  0.7628906249999999 0.890234375 0  -0.2666864184909611 0.2585504071132311 0  0.3635064892129658 0.3878003602709461 0  -0.2339409722222222 0.8901937905844155 0  -0.1718792125974916 -0.8957733325456778 0  0.1001768566329531 0.4023510017391879 0  0.3120260172693757 -0.4540546875576884 0  0.7804062804433681 0.1896628610854537 0  0.4087715451998049 0.187961780041608 0  -0.1584963477271457 0.5451611892421655 0  -0.8926817849258324 0.463022006336401 0  0.2338091473445219 -0.07576267331277289 0  0.08171112182813692 -0.2349087687359925 0  0.04635385178956847 -0.1044635073718474 0  -0.4377391632114205 -0.6448874471423088 0  -0.1907678351227189 0.6480215912813945 0  0.300605946475244 0.4741444604171038 0  -0.2145033720757486 -0.06751709909419711 0  0.6069191921170397 -0.005492331448357812 0  0.0214718770761248 0.6032397936031719 0  0.5476675683364878 0.8992752415326501 0  0.4387475014316537 0.9093708953002239 0  -0.4932997685306436 -0.4381009159993523 0  0.2515197695339056 -0.1791673369138964 0  -0.7291666666666667 -0.6088789682539681 0  -0.9166666666666667 -0.6875 0  0.620579540363709 -0.2122431523583302 0  -0.484950136419973 0.6719440339397442 0  0.2857044415400258 0.0137589173127316 0  -0.8945708364098356 -0.288306105327986 0  0.4043102720140535 0.7842914560451557 0  0.04123256238752064 -0.9026968245801402 0  0.2003676884403109 -0.9091888601740487 0  0.1068775558538842 -0.7373377130403223 0  -0.4804566783514427 -0.1763307203045643 0  0.108286342087769 -0.3993789328997278 0  -0.191883080105361 -0.3640821726430649 0  -0.07025064492006244 0.2984876656890053 0  -0.7039324641409584 0.788312126296613 0  -0.7311286585775438 0.8932502354831682 0  0.5171409396884947 0.1503852691889257 0  0.4229392823658633 -0.003216522184234835 0  -0.5621736087218259 -0.919558629836806 0  -0.626474064879544 -0.7266572613636506 0  0.2446828746617422 0.2867616783302419 0  0.1759429608742923 0.4776611759306416 0  -0.3468240303741654 -0.5260416435617549 0  -0.7465808808425306 0.4069574477998361 0  -0.7819962170660292 0.2802441065650652 0  -0.3742623214119594 -0.8547800509641984 0  0.1014498009713561 0.8506721983266377 0  0.4285217620918213 -0.5230190595570253 0  0.4091738370487775 -0.6256346204225141 0  0.78125 0.46875 0  0.90625 0.53125 0  -0.4791801348852565 0.2553992655702126 0  0.7843318610782772 -0.7086046956885941 0  0.8909728264971901 -0.7355183796514634 0  0.7041908166528879 -0.7830649143180282 0  0.7311821352
[...]
<PointData  Vectors="f_22"> 
<DataArray  type="Float64"  Name="f_22"  NumberOfComponents="3" format="ascii">-1.7335827072606485e-02 -1.6135592356728415e-02 0.0000000000000000e+00  -1.7335827072606485e-02 -1.6135592356728415e-02 0.0000000000000000e+00  -1.7335827072606485e-02 -1.6135592356728415e-02 0.0000000000000000e+00  -1.7335827072606485e-02 -1.6135592356728415e-02 0.0000000000000000e+00  -1.7236580130066376e-02 -2.1428146354937453e-02 0.0000000000000000e+00  -2.2366649544496735e-02 -1.6035209322316762e-02 0.0000000000000000e+00  -1.7236580130066376e-02 -2.1428146354937453e-02 0.0000000000000000e+00  -2.2366649544496735e-02 -1.6035209322316762e-02 0.0000000000000000e+00  -2.2469238815709645e-02 -2.1532220434239163e-02 0.0000000000000000e+00  -8.0803480311837234e-03 -1.6080207664524875e-02 0.0000000000000000e+00  -1.7280891860466323e-02 -7.0497968867880663e-03 0.0000000000000000e+00  -1.7280891860466323e-02 -7.0497968867880663e-03 0.0000000000000000e+00  -3.1630020660938313e-02 -1.6078749181204388e-02 0.0000000000000000e+00  -8.0803480311837234e-03 -1.6080207664524875e-02 0.0000000000000000e+00  -1.7280547775745048e-02 -3.0522323603678726e-02 0.0000000000000000e+00  -3.1630020660938313e-02 -1.6078749181204388e-02 0.0000000000000000e+00  -1.7280547775745048e-02 -3.0522323603678726e-02 0.0000000000000000e+00  -9.1088627814775811e-03 -3.0777083069975394e-02 0.0000000000000000e+00  -3.1849895773362683e-02 -8.1117741090393266e-03 0.0000000000000000e+00  -8.1164426788133143e-03 -1.2428372124133091e-02 0.0000000000000000e+00  -3.0027137952206313e-02 -3.0551712837693808e-02 0.0000000000000000e+00  -1.9827254574872246e-02 -7.1931301628233519e-03 0.0000000000000000e+00  -3.1575824003475021e-02 -2.4102561093354308e-02 0.0000000000000000e+00  -8.0501258224120898e-03 -6.9665004614403725e-03 0.0000000000000000e+00  -2.9795428203426219e-02 -2.8639552734426015e-02 0.0000000000000000e+00  -1.3297344665885844e-02 -2.5491154804406217e-02 0.0000000000000000e+00  -2.9070285094212358e-02 -7.8052470365087131e-03 0.0000000000000000e+00  -2.6679316743397213e-02 -1.2348973291034220e-02 0.0000000000000000e+00  -8.0308321874714671e-03 -2.5123715009304527e-02 0.0000000000000000e+00  -8.4783775815778020e-03 -2.7290045032140949e-02 0.0000000000000000e+00  -2.8462236067165778e-02 -7.3720345081395352e-03 0.0000000000000000e+00  -1.9828890680689208e-02 -3.0451928037497546e-02 0.0000000000000000e+00  -1.1720430115917141e-02 -8.1545698938833063e-03 0.0000000000000000e+00  -2.7010358427855621e-02 -3.0076387402094715e-02 0.0000000000000000e+00  -1.1239249458185750e-02 -2.2259119894363286e-02 0.0000000000000000e+00  -2.7431623328184506e-02 -1.1811343495387922e-02 0.0000000000000000e+00  -9.2256683361255330e-03 -3.0679256502452765e-02 0.0000000000000000e+00  -1.5896573345384132e-02 -1.3335795572432568e-02 0.0000000000000000e+00  -2.8602471051793442e-02 -2.8350562546617053e-02 0.0000000000000000e+00  -3.1731462435690423e-02 -2.5193397589979360e-02 0.0000000000000000e+00  -9.9144603483428146e-03 -1.6008875030009306e-02 0.0000000000000000e+00  -2.3951385160874316e-02 -2.6409191207200811e-02 0.0000000000000000e+00  -1.7317573275648458e-02 -8.6222823218262863e-03 0.0000000000000000e+00  -9.7572130942253539e-03 -1.6117360933834222e-02 0.0000000000000000e+00  -2.6395848777081052e-02 -1.6116435362779277e-02 0.0000000000000000e+00  -1.7317972785231499e-02 -2.5203572974996147e-02 0.0000000000000000e+00  -2.0664403650792893e-02 -8.4331075696622466e-03 0.0000000000000000e+00  -1.0926640739026499e-02 -7.5151800107281326e-03 0.0000000000000000e+00  -3.1750220649045979e-02 -3.0842106122076798e-02 0.0000000000000000e+00  -1.7248615736636795e-02 -2.8957903774284807e-02 0.0000000000000000e+00  -1.7248894020337580e-02 -1.2354177858828880e-02 0.0000000000000000e+00  -1.7317573275648458e-02 -8.6222823218262863e-03 0.0000000000000000e+00  -1.7317972785231499e-02 -2.5203572974996147e-02 0.0000000000000000e+00  -1.3302892859713197e-02 -1.6048207608693705e-02 0.0000000000000000e+00  -2.9959318663624834e-02 -1.6046845043571661e-02 0.0000000000000000e+00  -1.3302892859713197e-02 -1.6048207608693705e-02 0.0000000000000000e+00  -1.7248894020337580e-02 -1.2354177858828880e-02 0.0000000000000000e+00  -9.7572130942253539e-03 -1.6117360933834222e-02 0.0000000000000000e+00  -2.6395848777081052e-02 -1.6116435362779277e-02 0.0000000000000000e+00  -1.7248615736636795e-02 -2.8957903774284807e-02 0.0000000000000000e+00  -2.9959318663624834e-02 -1.6046845043571661e-02 0.0000000000000000e+00  -9.9468723287839209e-03 -8.3976956591092153e-03 0.0000000000000000e+00  -2.6085494869556941e-02 -2.3779262171889203e-02 0.0000000000000000e+00  -3.1763247481456633e-02 -1.5596230989487847e-02 0.0000000000000000e+00  -3.1853548393743679e-02 -7.0796321128646219e-03 0.0000000000000000e+00  -2.7602274440514267e-02 -7.0922972665208991e-03 0.0000000000000000e+00  -2.5485558802018787e-02 -7.2857495282829098e-03 0.0000000000000000e+00  -8.5317063849182865e-03 -2.8197344593314660e-02 0.0000000000000000e+00  -1.4432457113555244e-02 -3.0326846411148491e-02 0.0000000000000000e+00  -2.9448479635181105e-02 -2.1438832310034434e-02 0.0000000000000000e+00  -1.6735318772775776e-02 -2.6548519068706266e-02 0.0000000000000000e+00  -8.7357933700339223e-03 -2.7892730908740445e-02 0.0000000000000000e+00  -2.9663178556379993e-02 -1.8267189340687672e-02 0.0000000000000000e+00  -3.1599083749596343e-02 -1.0624666238135228e-02 0.0000000000000000e+00  -8.0396357660157108e-03 -1.0629033330128582e-02 0.0000000000000000e+00  -1.1508076665175561e-02 -6.8149969965974229e-03 0.0000000000000000e+00  -7.9206189718735737e-03 -7.7118259017767655e-03 0.0000000000000000e+00  -3.0934981134553233e-02 -2.3091812573555557e-02 0.0000000000000000e+00  -2.5384238069688682e-02 -2.4186998123943947e-02 0.0000000000000000e+00  -2.4909349803476883e-02 -3.0467481664770743e-02 0.0000000000000000e+00  -1.1829678288151417e-02 -2.5721836722752262e-02 0.0000000000000000e+00  -1.1395520124762250e-02 -1.0237054323128167e-02 0.0000000000000000e+00  -7.8155030695450517e-03 -1.8563843072402005e-02 0.0000000000000000e+00  -2.4228700444576701e-02 -3.0447525711919367e-02 0.0000000000000000e+00  -1.2532847394612502e-02 -2.9733250102841821e-02 0.0000000000000000e+00  -7.7849677491232463e-03 -3.0358968967449339e-02 0.0000000000000000e+00  -1.2466171108173826e-02 -2.8586377551333420e-02 0.0000000000000000e+00  -1.1289234817718237e-02 -2.2948268271763720e-02 0.0000000000000000e+00  -3.0665714643271034e-02 -6.8609411163672064e-03 0.0000000000000000e+00  -2.9742571135465065e-02 -1.1293552136083112e-02 0.0000000000000000e+00  -2.4157320025259259e-02 -1.0110067960911125e-02 0.0000000000000000e+00  -7.9953208255950751e-03 -2.1372553479925900e-02 0.0000000000000000e+00  -3.1117696215405700e-02 -1.1770348963026610e-02 0.0000000000000000e+00  -8.6855606441178217e-03 -2.2592481980508710e-02 0.0000000000000000e+00  -3.1930385869739585e-02 -2.9462374205461932e-02 0.0000000000000000e+00  -1.7666900949041844e-02 -2.0948439630691089e-02 0.0000000000000000e+00  -2.2154397753092057e-02 -1.6734654838892336e-02 0.0000000000000000e+00  -2.6682311988992579e-02 -1.1571394028667059e-02 0.0000000000000000e+00  -2.6694466638395132e-02 -2.0946374491206832e-02 0.0000000000000000e+00  -2.2112653709097051e-02 -6.9131445013484527e-03 0.0000000000000000e+00  -3.1831644561292088e-02 -2.8697496804939857e-02 0.0000000000000000e+00  -3.0878979987958934e-02 -2.8922377126428461e-02 0.0000000000000000e+00  -2.3206968826117998e-02 -2.7207550231180943e-02 0.0000000000000000e+00  -7.7585505330215656e-03 -3.0154811304547797e-02 0.0000000000000000e+00  -8.2837723313734860e-03 -8.2271284280242430e-03 0.0000000000000000e+00  -9.9364388673035126e-03 -1.6062353372071229e-02 0.0000000000000000e+00  -1.4591983888977703e-02 -6.7718390731419352e-03 0.0000000000000000e+00  -2.9244177834813742e-02 -2.7430578372547997e-02 0.0000000000000000e+00  -1.7262789420410683e-02 -3.0643901968380381e-02 0.0000000000000000e+00  -3.0826719532740673e-02 -6.6988492797670860e-03 0.0000000000000000e+00  -1.7667343026382974e-02 -1.6038413145518886e-02 0.0000000000000000e+00  -1.5418199048889709e-02 -1.0900238087691687e-02 0.0000000000000000e+00  -2.1556181491826178e-02 -1.0504520715121255e-02 0.0000000000000000e+00  -1.0981859111016606e-02 -1.1219307051816372e-02 0.0000000000000000e+00  -9.0745068735806848e-03 -1.7471032857431009e-02 0.0000000000000000e+00  -1.6287616841174184e-02 -1.9643895736238048e-02 0.0000000000000000e+00  -1.8198906906520804e-02 -2.8071890850961047e-02 0.0000000000000000e+00  -2.9457601504134699e-02 -3.0786423171452283e-02 0.0000000000000000e+00  -2.5764171106331907e-02 -3.0509020916304107e-02 0.0000000000000000e+00  -2.3821191402147304e-02 -6.7929882003193876e-03 0.0000000000000000e+00  -2.2156426244687742e-02 -9.6894374061815714e-03 0.0000000000000000e+00  -1.7299672055505713e-02 -2.8611363073093834e-02 0.0000000000000000e+00  -2.3450114612313919e-02 -1.5530394903252871e-02 0.0000000000000000e+00  -8.2526551703981932e-03 -2.3163319698425198e-02 0.0000000000000000e+00  -2.2027942492410295e-02 -1.6129808887196305e-02 0.0000000000000000e+00  -2.9154990662773238e-02 -8.7470835601536779e-03 0.0000000000000000e+00  -3.0237764442834249e-02 -8.9036025360182004e-03 0.0000000000000000e+00  -9.5858681552830997e-03 -6.8435884605494123e-03 0.0000000000000000e+00  -1.7239648849621408e-02 -2.5720983746909874e-02 0.0000000000000000e+00  -2.3052454086746124e-02 -2.7870198987413122e-02 0.0000000000000000e+00  -1.2048758354964778e-02 -2.9544521936837154e-02 0.0000000000000000e+00  -8.0557448830831622e-03 -1.0121914888731031e-02 0.0000000000000000e+00  -3.0586140632520537e-02 -3.0474121273626632e-02 0.0000000000000000e+00  -1.2211567448311252e-02 -3.0678580334444400e-02 0.0000000000000000e+00  -8.8124911287426107e-03 -2.8711079265511426e-02 0.0000000000000000e+00  -3.1737181955705809e-02 -2.1328799172246324e-02 0.0000000000000000e+00  -9.6245358273318125e-03 -1.1065874020061277e-02 0.0000000000000000e+00  -3.0872323822068563e-02 -2.5725990429065180e-02 0.0000000000000000e+00  -1.4928562718547771e-02 -8.9753127428328500e-03 0.0000000000000000e+00  -1.2112328837181833e-02 -1.1598773795076978e-02 0.0000000000000000e+00  -9.6210601849987427e-03 -2.1625812301305638e-02 0.0000000000000000e+00  -1.7239688229596952e-02 -1.6735186682080329e-02 0.0000000000000000e+00  -1.2856164299195732e-02 -1.9190500474551970e-02 0.0000000000000000e+00  -3.1912720631400403e-02 -2.0790553706718399e-02 0.0000000000000000e+00  -3.0394077123170750e-02 -2.1533295981563935e-02 0.0000000000000000e+00  -1.7330818563007968e-02 -2.0821138814802416e-02 0.0000000000000000e+00  -2.9713653833776266e-02 -1.5884266619470899e-02 0.0000000000000000e+00  -2.2307762777264425e-02 -3.0346490851080390e-02 0.0000000000000000e+00  -3.1598041831329804e-02 -9.3096709523467665e-03 0.0000000000000000e+00  -7.7896130658178606e-03 -2.5449938427162554e-02 0.0000000000000000e+00  -1.1566497920423351e-02 -2.6756298783885097e-02 0.0000000000000000e+00  -9.1072016491734343e-03 -8.2418585117240376e-03 0.0000000000000000e+00  -1.7263132272895942e-02 -8.9534973673699725e-03 0.0000000000000000e+00  -2.2892442278262995e-02 -2.8092888944881461e-02 0.0000000000000000e+00  -1.2383172058356985e-02 -1.6661972511537598e-02 0.0000000000000000e+00  -2.6381497800988637e-02 -2.4182296703402009e-02 0.0000000000000000e+00  -1.1350967003242448e-02 -2.8758934937336958e-02 0.0000000000000000e+00  -9.4854660104758976e-03 -2.9844929141560641e-02 0.0000000000000000e+00  -1.7262789420410683e-02 -3.0643901968380381e-02 0.0000000000000000e+00  -1.9250855760068075e-02 -3.0636661442049656e-02 0.0000000000000000e+00  -2.8361776062403199e-02 -2.0671626036889112e-02 0.0000000000000000e+00  -3.1640725562218482e-02 -1.9265144345910135e-02 0.0000000000000000e+00  -2.9540988782404385e-02 -2.5801511706068692e-02 0.0000000000000000e+00  -1.1578680120584790e-02 -2.0948640679907263e-02 0.0000000000000000e+00  -3.1634180847715188e-02 -1.1115655909597202e-02 0.0000000000000000e+00  -1.7330877473627177e-02 -1.1854387414043294e-02 0.0000000000000000e+00  -2.2027942492410295e-02 -1.6129808887196305e-02 0.0000000000000000e+00  -1.3029439030486471e-02 -1.6130655105640410e-02 0.0000000000000000e+00  -1.7330818563007968e-02 -2.0821138814802416e-02 0.0000000000000000e+00  -2.2144126215977795e-02 -1.1570621689327100e-02 0.0000000000000000e+00  -2.5384328946457330e-02 -8.4342192947344415e-03 0.0000000000000000e+00  -1.5919982807430618e-02 -7.9383397389616740e-03 0.0000000000000000e+00  -9.0452349193313655e-03 -6.9123672050995935e-03 0.0000000000000000e+00  -1.2897384669208280e-02 -7.3414495490450871e-03 0.0000000000000000e+00  -3.1775378232789649e-02 -3.0747441508430125e-02 0.0000000000000000e+00  -1.7330877473627177e-02 -1.1854387414043294e-02 0.0000000000000000e+00  -1.3029439030486471e-02 -1.6130655105640410e-02 0.0000000000000000e+00  -3.1526944971698362e-02 -2.6937211048114345e-02 0.0000000000000000e+00  -8.9787727284672998e-03 -9.0400143443788682e-03 0.0000000000000000e+00  -8.1097442093393916e-03 -1.4184072614705698e-02 0.0000000000000000e+00  -1.9056371680828781e-02 -6.8673067826548612e-03 0.0000000000000000e+00  -2.4047378553602918e-02 -8.0210973109567391e-03 0.0000000000000000e+00  -2.6862277358130765e-02 -1.8339660121785520e-02 0.0000000000000000e+00  -2.2082290827235816e-02 -2.1576012193833149e-02 0.0000000000000000e+00  -2.2371414224561192e-02 -2.0739118083988612e-02 0.0000000000000000e+00  -1.7263132272895942e-02 -8.9534973673699725e-03 0.0000000000000000e+00  -1.7299623027512260e-02 -6.9337824443243753e-03 0.0000000000000000e+00  -2.6682853139854974e-02 -1.6038113100891760e-02 0.0000000000000000e+00  -1.7239688229596952e-02 -1.6735186682080329e-02 0.0000000000000000e+00  -9.9364388673035126e-03 -1.6062353372071229e-02 0.0000000000000000e+00  -1.7667343026382974e-02 -1.6038413145518886e-02 0.0000000000000000e+00  -8.0184515113625246e-03 -1.6099135525552945e-02 0.0000000000000000e+00  -1.7299672055505713e-02 -2.8611363073093834e-02 0.0000000000000000e+00  -1.7239648849621408e-02 -2.5720983746909874e-02 0.0000000000000000e+00  -1.7299623027512260e-02 -6.9337824443243753e-03 0.0000000000000000e+00  -8.0184515113625246e-03 -1.6099135525552945e-02 0.0000000000000000e+00  -2.6682853139854974e-02 -1.6038113100891760e-02 0.0000000000000000e+00  -3.1697134409688500e-02 -1.6061051600205389e-02 0.0000000000000000e+00  -2.9767675549908914e-02 -1.6098418863710016e-02 0.0000000000000000e+00  -3.1697134409688500e-02 -1.6061051600205389e-02 0.0000000000000000e+00  -2.9767675549908914e-02 -1.6098418863710016e-02 0.0000000000000000e+00  -3.1362965480469712e-02 -2.8452659675911172e-02 0.0000000000000000e+00  -2.6159507871738142e-02 -1.9036694244820067e-02 0.0000000000000000e+00  -2.9908140675317964e-02 -1.1805628484195040e-02 0.0000000000000000e+00  -2.2149152241438728e-02 -2.0941534823298726e-02 0.0000000000000000e+00  -3.1216507432632733e-02 -7.4651134497167020e-03 0.0000000000000000e+00  -3.1837389115828889e-02 -6.7724182918819991e-03 0.0000000000000000e+00  -3.0934744050996523e-02 -7.3961106736117064e-03 0.0000000000000000e+00  -1.3193376248529521e-02 -7.8720857037290655e-03 0.0000000000000000e+00  -8.0217143175357313e-03 -1.1914645155005477e-02 0.0000000000000000e+00  -3.1275415757779861e-02 -8.6993006765236844e-03 0.0000000000000000e+00  -2.6349667756993718e-02 -2.8890268920719532e-02 0.0000000000000000e+00  -1.5299452648951687e-02 -3.0726584114434949e-02 0.0000000000000000e+00  -1.9815819247560845e-02 -2.4784939088485163e-02 0.0000000000000000e+00  -3.0390157464944403e-02 -3.0566331575734004e-02 0.0000000000000000e+00  -8.0277412382038626e-03 -6.7972911835498858e-03 0.0000000000000000e+00  -7.7673291772199513e-03 -2.8515105784626630e-02 0.0000000000000000e+00  -7.7691876759899900e-03 -2.7912317155897381e-02 0.0000000000000000e+00  -2.6698034737322698e-02 -2.8906352482208745e-02 0.0000000000000000e+00  -1.1694532607862601e-02 -3.0756019959173139e-02 0.0000000000000000e+00  -2.6071534423498507e-02 -6.7432954267539237e-03 0.0000000000000000e+00  -1.0011700634793274e-02 -2.5811420728777981e-02 0.0000000000000000e+00  -8.3136708912640144e-03 -3.0248907436024298e-02 0.0000000000000000e+00  -2.1587049449104511e-02 -6.9547468719449194e-03 0.0000000000000000e+00  -3.1313575252614100e-02 -3.0469244565525459e-02 0.0000000000000000e+00  -2.6038715826108765e-02 -9.2644156459871993e-03 0.0000000000000000e+00  -2.7038779740774271e-02 -2.7778839337479030e-02 0.0000000000000000e+00  -2.7590191278324329e-02 -6.7871645574040032e-03 0.0000000000000000e+00  -2.7520289465965356e-02 -8.8436103557045787e-03 0.0000000000000000e+00  -9.4510952066348946e-03 -1.1041350302541606e-02 0.0000000000000000e+00  -1.0551597881408815e-02 -3.0418586995582322e-02 0.0000000000000000e+00  -2.0142756838376769e-02 -1.8044692993537621e-02 0.0000000000000000e+00  -2.8794632923606612e-02 -2.4729914138295703e-02 0.0000000000000000e+00  -2.1458626484226771e-02 -2.4796266487102786e-02 0.0000000000000000e+00  -3.0165425401571109e-02 -1.1871371112932679e-02 0.0000000000000000e+00  -3.1835829336845901e-02 -3.0624947964406929e-02 0.0000000000000000e+00  -2.1364152929990422e-02 -1.2869177975077408e-02 0.0000000000000000e+00  -1.3607806958305281e-02 -1.5027953714365971e-02 0.0000000000000000e+00  -3.1880118386143810e-02 -2.5013473433006372e-02 0.0000000000000000e+00  -8.5392556255416696e-03 -3.0004095516551355e-02 0.0000000000000000e+00  -2.8571112640663428e-02 -2.4158476849885861e-02 0.0000000000000000e+00  -2.8578653433556457e-02 -3.0838662546418389e-02 0.0000000000000000e+00  -3.1114305109942106e-02 -1.5528966290762345e-02 0.0000000000000000e+00  -3.1826634881261258e-02 -1.2323852901105419e-02 0.0000000000000000e+00  -1.9603067044166266e-02 -2.8680632553299640e-02 0.0000000000000000e+00  -1.3859740517617401e-02 -2.4404006013796168e-02 0.0000000000000000e+00  -1.8533045220196206e-02 -2.3201944331132464e-02 0.0000000000000000e+00  -8.1962544935323400e-03 -7.8371087970032834e-03 0.0000000000000000e+00  -2.9177277783736320e-02 -1.4356267319745186e-02 0.0000000000000000e+00  -3.1836729564708378e-02 -2.9913349804099768e-02 0.0000000000000000e+00  -1.9929247121925064e-02 -1.3614961651150575e-02 0.0000000000000000e+00  -2.2203342399750085e-02 -2.8954656963214188e-02 0.0000000000000000e+00  -3.0182190312330843e-02 -2.2259075771914452e-02 0.0000000000000000e+00  -2.1096830258747267e-02 -3.0008527762745183e-02 0.0000000000000000e+00  -2.0700109723956077e-02 -3.0825929490416879e-02 0.0000000000000000e+00  -8.8473391832074120e-03 -7.1599257872197591e-03 0.0000000000000000e+00  -1.5757044633936932e-02 -2.9033643701813681e-02 0.0000000000000000e+00  -7.9532068497726090e-03 -8.2385047663686879e-03 0.0000000000000000e+00  -8.6838276500626962e-03 -1.3183459609632141e-02 0.0000000000000000e+00  -1.4552571615896336e-02 -2.8640389974045263e-02 0.0000000000000000e+00  -2.8573992080804259e-02 -7.1509300746234097e-03 0.0000000000000000e+00  -2.2961213615003806e-02 -2.9672769959458976e-02 0.0000000000000000e+00  -1.2151764359504500e-02 -1.2405296602236130e-02 0.0000000000000000e+00  -2.5254739842867132e-02 -3.0810706009966510e-02 0.0000000000000000e+00  -1.3812119397712718e-02 -2.2924774777025345e-02 0.0000000000000000e+00  -1.4024421297010640e-02 -2.7830669841549922e-02 0.0000000000000000e+00  -9.4164268917687529e-03 -2.5160007411171890e-02 0.0000000000000000e+00  -1.5872343405062144e-02 -7.2675358150791338e-03 0.0000000000000000e+00  -9.4622518195887316e-03 -2.5248803769787161e-02 0.0000000000000000e+00  -1.0241843959638657e-02 -1.4396205225202305e-02 0.0000000000000000e+00  -3.0884722653358510e-02 -1.8873362774540915e-02 0.0000000000000000e+00  -2.5081369615892239e-02 -7.7648002601528911e-03 0.0000000000000000e+00  -2.1308523973760939e-02 -8.2423893809040940e-03 0.0000000000000000e+00  -2.7517690419227778e-02 -3.0375125648690781e-02 0.0000000000000000e+00  -2.2316356138649414e-02 -3.0833841346326763e-02 0.0000000000000000e+00  -1.4449577546464427e-02 -6.7729800059671942e-03 0.0000000000000000e+00  -9.3203364292069740e