<?xml version="1.0"?>
<VTKFile type="UnstructuredGrid"  version="0.1"  >
<UnstructuredGrid>
<Piece  NumberOfPoints="1380" NumberOfCells="2630">
<Points>
<DataArray  type="Float64"  NumberOfComponents="3"  format="ascii">-1 -1 0  1 -1 0  1 1 0  -1 1 0  0 -1 0  1 0 0  0 1 0  -1 0 0  0 0 0  -1 -0.5 0  -0.5 -1 0  -0.5 1 0  -1 0.5 0  1 -0.5 0  0.5 -1 0  1 0.5 0  0.5 1 0  0.4166666666666666 -0.4166666666666667 0  -0.4166666666666667 0.4166666666666667 0  -0.25 -0.5 0  0.5 0.25 0  -0.4861111111111112 -0.06944444444444445 0  0.0732758620689655 0.507183908045977 0  -0.625 -0.625 0  0.625 0.625 0  0.7380952380952381 -0.25 0  -0.7099116161616161 0.2105429292929293 0  -0.25 0.7380952380952381 0  0.105392156862745 -0.6348039215686275 0  0.6770833333333334 -0.6770833333333333 0  -0.6770833333333334 0.6770833333333334 0  0.3472222222222222 -0.06944444444444446 0  -0.7264957264957265 -0.3044871794871795 0  0.3141940982507127 0.7297313660835709 0  0.02049587951122483 -0.3227479397556124 0  -0.2690972222222223 0.1475694444444444 0  0.3859500089908372 -0.7274430156831472 0  -0.2228477945123298 -0.1761765495248019 0  0.2182539682539683 0.1884920634920635 0  0.75 0.375 0  -0.145442219440968 -0.7602211097204841 0  0.7088913690476191 0.0427827380952381 0  -0.75 -1 0  -1 -0.75 0  1 0.75 0  0.75 1 0  -0.7439982703698937 -0.04614153195464455 0  -0.4609235096577606 -0.3356498099556895 0  0.4063134471431929 0.4895621842856023 0  0.25 -1 0  -0.25 -1 0  -0.75 1 0  0.75 -1 0  -1 -0.25 0  -1 0.25 0  1 -0.25 0  -0.25 1 0  1 -0.75 0  -1 0.75 0  0.25 1 0  1 0.25 0  -0.4041423272138783 -0.7597141090712928 0  0.06500839607911253 0.7578103030529481 0  -0.1572801182352047 0.3838997021864289 0  -0.6528005242053915 0.4409494757946086 0  -0.4930160984848485 0.1544744318181818 0  -0.4732142857142858 0.7752976190476191 0  0.6398809523809523 -0.4538690476190476 0  0.5166054117396399 -0.2161233620965164 0  -0.002273787244753427 0.2232363985975174 0  0.1500564496765022 -0.1524955293952667 0  0.2016720420046758 -0.4410343282803009 0  -0.08495178036419618 0.6274139771124571 0  -0.8367311471133162 0.3642591720794645 0  -0.8333333333333334 -0.625 0  -0.594323836800685 -0.8231079456002283 0  -0.4466957714776065 -0.5349126855671806 0  0.8125 0.5625 0  0.78125 0.78125 0  0.5091392650016769 0.7947130883338923 0  0.125 -0.8382681931833136 0  -0.8184523809523809 -0.8184523809523809 0  -0.07781530426104531 -0.5819319697006881 0  0.5085055196703295 0.04967610411902112 0  0.2918471072074933 -0.276017202318847 0  0.5120763537765269 -0.5898771553229597 0  0.625 -0.8585349462365591 0  0.8158532234335381 -0.8158532234335381 0  -0.5198088446315396 0.5739411553684605 0  -0.8585349462365591 0.625 0  -0.8150493805516597 0.8156205699829586 0  0.8585349462365591 -0.625 0  -0.2688268348649726 0.5439331383603209 0  0.8242100426758139 -0.4436043596336612 0  0.5833756314287952 0.4479378157143976 0  0.8690476190476191 -0.125 0  -0.125 0.8690476190476191 0  -0.8692745600729823 0.125 0  0.8696725120759167 0.125 0  -0.625 0.8711516477451908 0  0.2339522463269718 0.3879558377955778 0  0.2453709502295031 0.5655822922838026 0  0.1730610651637797 0.02021709580868947 0  0.3245402594056757 -0.5644672020485209 0  -0.7291666666666666 -0.4816595441595442 0  -1 -0.375 0  -0.5811140848639904 -0.2127276307675001 0  0.673332592838314 0.2158348143233718 0  0.375 1 0  -0.5714768890989919 0.2985103444040069 0  -1 -0.125 0  -0.8453692574786325 -0.1875 0  -0.3144549134065865 -0.02408675326008025 0  -0.2898414972096258 -0.3336092734780093 0  -0.1075052092206287 -0.4224330421314983 0  -0.05043970703604117 -0.1652278959397459 0  0.6459672950297897 -0.1113415301525317 0  0.4645210271029513 0.6398480556579343 0  0.3512863754411909 0.0937979496253573 0  -0.6063160985568274 0.03891469652249891 0  -0.3428819444444445 0.8690476190476191 0  0.625 1 0  -0.1602164796159982 0.02697860906625157 0  0.04648110064133829 -0.4808416424239687 0  1 0.875 0  -0.3836102479201657 0.6484936449177356 0  -0.3776011723096096 0.263078478984336 0  -0.6024978259969829 -0.3949628096211138 0  0.125 1 0  0.2010781308272777 0.8456221018461906 0  0.2822509696388829 -0.845902544691141 0  -0.3285533674953515 -0.6289773550938936 0  0.3461306793221754 0.278777492464833 0  0.4737475672408696 -0.8508448959534423 0  0.2384632828836344 -0.7029523187242811 0  -0.004777287059791593 0.3759269695907358 0  -0.8499735021850066 -0.3912320205328522 0  0.1222536293721587 0.2963971539625205 0  -0.3769456520999688 -0.203572526805711 0  -0.2749617205755651 -0.8464290792698902 0  0.004805888512766143 -0.747174355248311 0  -0.125 -1 0  -0.06001061822252458 -0.8724007765244854 0  0.875 0.4375 0  0.854421179608893 0.271342359217786 0  0.875 1 0  -0.1499861095763589 0.2358309656934888 0  0.3381943639137225 0.8663061796405532 0  -0.7853090110442228 0.4998412775277108 0  0.7398165998560814 -0.5535192694951373 0  0.1580042122341573 -0.3100246140259917 0  -0.7291666666666667 -0.7142857142857142 0  -0.375 -1 0  0.6483368386154684 0.8514905990110488 0  -0.1295370103291928 -0.2826118305021242 0  0.07458201853700455 0.1123894386563915 0  0.6146465857036327 -0.3161203659316075 0  0.5551898493894731 -0.740296118159085 0  0.375 -1 0  0.482702798370208 -0.084133350091034 0  0.87890625 0.68359375 0  -0.05917195534525846 0.4971092425697621 0  0.1260710309213975 0.6343750312956699 0  0.8690476190476191 -0.3077066815262848 0  -0.2912010232560567 0.3668168386732139 0  -0.875 1 0  -1 0.875 0  1 -0.875 0  0.875 -1 0  -0.8689564281364567 -0.006189266075306407 0  -0.7449425635110547 0.08458938160051771 0  -0.7150266761936593 -0.1739444581417552 0  -0.5260034831318311 -0.711099823962112 0  -0.4724626808827322 -0.871722230709409 0  0.4734436795977052 0.377714794132168 0  -0.875 -1 0  -1 -0.875 0  0.6927189078571988 0.5156567235715964 0  -0.3742497615796874 -0.4296005251260107 0  -0.1969436423297711 -0.6387157229772615 0  -0.6179496409766825 -0.08933356056510935 0  -0.424405057115988 0.04452428810878029 0  -0.08479048335844169 0.1279607007132633 0  0.003830300099055113 0.8712085230656206 0  0.8748778838820267 -1.379218479898026e-05 0  -0.375 1 0  -0.625 1 0  1 0.125 0  -0.125 1 0  1 -0.375 0  1 -0.125 0  1 -0.625 0  0.625 -1 0  0.125 -1 0  -0.625 -1 0  -1 -0.625 0  -1 0.125 0  -1 0.375 0  -1 0.625 0  1 0.375 0  1 0.625 0  0.6325660748712082 0.3335187599557389 0  -0.06420945895056573 0.7549874027425891 0  -0.8769015540914771 0.2478802253893416 0  0.871875 0.871875 0  -0.6868091492840067 0.3270978624973681 0  -0.5363597469565949 0.412994850055505 0  -0.6803734992638302 0.5574295000651103 0  -0.7076253581162534 -0.8803439094224437 0  -0.8778089002295137 -0.5106896447504627 0  -0.3860184984222981 0.530566778071246 0  0.6109900617121508 0.1128453077697081 0  0.3896945134930274 -0.1915382873255086 0  0.7605656944697778 -0.06822134873122943 0  0.3576151269893478 0.5948388411612135 0  -0.5689902680792265 -0.5143596830118065 0  0.6262446286847614 -0.5735657901943212 0  0.2030558252325225 -0.5625263842513452 0  0.6123273142928579 0.7407533260723429 0  0.4016460890123554 -0.3042863223111857 0  -0.59039693199147 0.7578418819188018 0  0.7276932493917544 -0.3705808024528924 0  0.5222536818742854 -0.4713886230400014 0  -0.5101986527137737 0.8848365765607674 0  0.510560172809238 0.5356013299918891 0  -0.3603569195756083 0.75823710606415 0  0.1967279277813232 0.728226870058472 0  -0.6086880986371127 0.1545624071548516 0  -0.38105366729386 0.1511189987807864 0  -0.2944659463671584 -0.7359061804869591 0  0.5060729154966499 -0.3475227845833823 0  -0.09281616240412746 -0.06197858250969457 0  0.7649739583333334 0.6673177083333334 0  0.7628906249999999 0.890234375 0  -0.2666864184909611 0.2585504071132311 0  0.3635064892129658 0.3878003602709461 0  -0.2339409722222222 0.8901937905844155 0  -0.1718792125974916 -0.8957733325456778 0  0.1001768566329531 0.4023510017391879 0  0.3120260172693757 -0.4540546875576884 0  0.7804062804433681 0.1896628610854537 0  0.4087715451998049 0.187961780041608 0  -0.1584963477271457 0.5451611892421655 0  -0.8926817849258324 0.463022006336401 0  0.2338091473445219 -0.07576267331277289 0  0.08171112182813692 -0.2349087687359925 0  0.04635385178956847 -0.1044635073718474 0  -0.4377391632114205 -0.6448874471423088 0  -0.1907678351227189 0.6480215912813945 0  0.300605946475244 0.4741444604171038 0  -0.2145033720757486 -0.06751709909419711 0  0.6069191921170397 -0.005492331448357812 0  0.0214718770761248 0.6032397936031719 0  0.5476675683364878 0.8992752415326501 0  0.4387475014316537 0.9093708953002239 0  -0.4932997685306436 -0.4381009159993523 0  0.2515197695339056 -0.1791673369138964 0  -0.7291666666666667 -0.6088789682539681 0  -0.9166666666666667 -0.6875 0  0.620579540363709 -0.2122431523583302 0  -0.484950136419973 0.6719440339397442 0  0.2857044415400258 0.0137589173127316 0  -0.8945708364098356 -0.288306105327986 0  0.4043102720140535 0.7842914560451557 0  0.04123256238752064 -0.9026968245801402 0  0.2003676884403109 -0.9091888601740487 0  0.1068775558538842 -0.7373377130403223 0  -0.4804566783514427 -0.1763307203045643 0  0.108286342087769 -0.3993789328997278 0  -0.191883080105361 -0.3640821726430649 0  -0.07025064492006244 0.2984876656890053 0  -0.7039324641409584 0.788312126296613 0  -0.7311286585775438 0.8932502354831682 0  0.5171409396884947 0.1503852691889257 0  0.4229392823658633 -0.003216522184234835 0  -0.5621736087218259 -0.919558629836806 0  -0.626474064879544 -0.7266572613636506 0  0.2446828746617422 0.2867616783302419 0  0.1759429608742923 0.4776611759306416 0  -0.3468240303741654 -0.5260416435617549 0  -0.7465808808425306 0.4069574477998361 0  -0.7819962170660292 0.2802441065650652 0  -0.3742623214119594 -0.8547800509641984 0  0.1014498009713561 0.8506721983266377 0  0.4285217620918213 -0.5230190595570253 0  0.4091738370487775 -0.6256346204225141 0  0.78125 0.46875 0  0.90625 0.53125 0  -0.4791801348852565 0.2553992655702126 0  0.7843318610782772 -0.7086046956885941 0  0.8909728264971901 -0.7355183796514634 0  0.7041908166528879 -0.7830649143180282 0  0.7311821352
[...]
<PointData  Vectors="f_22"> 
<DataArray  type="Float64"  Name="f_22"  NumberOfComponents="3" format="ascii">-2.8253289374323099e-03 -2.8697073854747333e-03 0.0000000000000000e+00  -2.8253289374323099e-03 -2.8697073854747333e-03 0.0000000000000000e+00  -2.8253289374323099e-03 -2.8697073854747333e-03 0.0000000000000000e+00  -2.8253289374323099e-03 -2.8697073854747333e-03 0.0000000000000000e+00  -2.8252201042769298e-03 -2.9346935261938094e-03 0.0000000000000000e+00  -2.8950326157338234e-03 -2.8695772368866226e-03 0.0000000000000000e+00  -2.8252201042769298e-03 -2.9346935261938094e-03 0.0000000000000000e+00  -2.8950326157338234e-03 -2.8695772368866226e-03 0.0000000000000000e+00  -2.8951245348376340e-03 -2.9348311364435745e-03 0.0000000000000000e+00  -2.3027591269554433e-03 -2.8696348135502530e-03 0.0000000000000000e+00  -2.8252774618530447e-03 -2.3448134174162611e-03 0.0000000000000000e+00  -2.8252774618530447e-03 -2.3448134174162611e-03 0.0000000000000000e+00  -3.4176094366359399e-03 -2.8696250110432173e-03 0.0000000000000000e+00  -2.3027591269554433e-03 -2.8696348135502530e-03 0.0000000000000000e+00  -2.8252596245717369e-03 -3.4596233816664348e-03 0.0000000000000000e+00  -3.4176094366359399e-03 -2.8696250110432173e-03 0.0000000000000000e+00  -2.8252596245717369e-03 -3.4596233816664348e-03 0.0000000000000000e+00  -2.3307333546483048e-03 -3.4490066958978069e-03 0.0000000000000000e+00  -3.4075805005806636e-03 -2.3721833292409070e-03 0.0000000000000000e+00  -2.3028137024223589e-03 -2.5311154326821974e-03 0.0000000000000000e+00  -3.2790526589484719e-03 -3.4596517065514135e-03 0.0000000000000000e+00  -2.7736261997953820e-03 -2.3467736268733045e-03 0.0000000000000000e+00  -3.4166791010502118e-03 -3.0611216240753712e-03 0.0000000000000000e+00  -2.3319106616076866e-03 -2.3748471341625962e-03 0.0000000000000000e+00  -3.3618665452339403e-03 -3.4047705870348705e-03 0.0000000000000000e+00  -2.4906460269329559e-03 -3.2885887419840231e-03 0.0000000000000000e+00  -3.2300730943893509e-03 -2.4416814080497245e-03 0.0000000000000000e+00  -3.2449831898250705e-03 -2.5310361756587640e-03 0.0000000000000000e+00  -2.3376283486054926e-03 -3.1141584392126963e-03 0.0000000000000000e+00  -2.3683696956984675e-03 -3.3583234789987615e-03 0.0000000000000000e+00  -3.3150709769907099e-03 -2.4116617276072018e-03 0.0000000000000000e+00  -2.7736338874153688e-03 -3.4116940900503533e-03 0.0000000000000000e+00  -2.4247696513130883e-03 -2.4588240815471346e-03 0.0000000000000000e+00  -3.2555761531968758e-03 -3.3852793954712909e-03 0.0000000000000000e+00  -2.4054337415874588e-03 -2.9706037627627215e-03 0.0000000000000000e+00  -3.1406771003949386e-03 -2.5067672772376404e-03 0.0000000000000000e+00  -2.4161789078687664e-03 -3.4355913451251810e-03 0.0000000000000000e+00  -2.5969151398806626e-03 -2.5680374666420275e-03 0.0000000000000000e+00  -3.2003265322546521e-03 -3.2804166473376236e-03 0.0000000000000000e+00  -3.3885604327749804e-03 -3.2733531914606265e-03 0.0000000000000000e+00  -2.4534270624123784e-03 -2.6855011513665047e-03 0.0000000000000000e+00  -2.9694352164995482e-03 -3.3239139486205631e-03 0.0000000000000000e+00  -2.8253036075617782e-03 -2.4851119781457440e-03 0.0000000000000000e+00  -2.4414022877765501e-03 -2.8696860578190154e-03 0.0000000000000000e+00  -3.2296789007009033e-03 -2.8696700410331256e-03 0.0000000000000000e+00  -2.8253075432256277e-03 -3.2733517001482196e-03 0.0000000000000000e+00  -2.8141617480392047e-03 -2.4780805363868062e-03 0.0000000000000000e+00  -2.3927020831889124e-03 -2.3530400855126185e-03 0.0000000000000000e+00  -3.4185064632797769e-03 -3.4451477787757548e-03 0.0000000000000000e+00  -2.8252322260994881e-03 -3.3193468482482129e-03 0.0000000000000000e+00  -2.8252323428168608e-03 -2.5310569575393107e-03 0.0000000000000000e+00  -2.8253036075617782e-03 -2.4851119781457440e-03 0.0000000000000000e+00  -2.8253075432256277e-03 -3.2733517001482196e-03 0.0000000000000000e+00  -2.4906575030273505e-03 -2.8696007921764351e-03 0.0000000000000000e+00  -3.2789784146004027e-03 -2.8695915741813321e-03 0.0000000000000000e+00  -2.4906575030273505e-03 -2.8696007921764351e-03 0.0000000000000000e+00  -2.8252323428168608e-03 -2.5310569575393107e-03 0.0000000000000000e+00  -2.4414022877765501e-03 -2.8696860578190154e-03 0.0000000000000000e+00  -3.2296789007009033e-03 -2.8696700410331256e-03 0.0000000000000000e+00  -2.8252322260994881e-03 -3.3193468482482129e-03 0.0000000000000000e+00  -3.2789784146004027e-03 -2.8695915741813321e-03 0.0000000000000000e+00  -2.4528681592084281e-03 -2.3795725639033675e-03 0.0000000000000000e+00  -3.2192207620409890e-03 -3.0471108883892749e-03 0.0000000000000000e+00  -3.3933724355225958e-03 -2.6665310129796284e-03 0.0000000000000000e+00  -3.4144184347633584e-03 -2.3927205960485782e-03 0.0000000000000000e+00  -3.1510589658182622e-03 -2.3456331517811278e-03 0.0000000000000000e+00  -3.1951668434440869e-03 -2.3494864601687638e-03 0.0000000000000000e+00  -2.3135822395225179e-03 -3.3927257205376422e-03 0.0000000000000000e+00  -2.5372529660709063e-03 -3.4571162065357595e-03 0.0000000000000000e+00  -3.2465513295018176e-03 -2.9308516787587961e-03 0.0000000000000000e+00  -2.6342354160764471e-03 -3.1844132253862991e-03 0.0000000000000000e+00  -2.3186965753798474e-03 -3.2584433303917467e-03 0.0000000000000000e+00  -3.3598813393032295e-03 -2.7865768002924107e-03 0.0000000000000000e+00  -3.3820754862224659e-03 -2.6002440135689774e-03 0.0000000000000000e+00  -2.3318918732794462e-03 -2.5953724338886046e-03 0.0000000000000000e+00  -2.5365206493337200e-03 -2.3596519648472554e-03 0.0000000000000000e+00  -2.3023601636534287e-03 -2.3580902426362047e-03 0.0000000000000000e+00  -3.4001298447485914e-03 -3.1848192693106295e-03 0.0000000000000000e+00  -3.1868629021978663e-03 -3.2306800067079746e-03 0.0000000000000000e+00  -3.1674047903803289e-03 -3.4584851612483886e-03 0.0000000000000000e+00  -2.5584428482590361e-03 -3.1455564333179300e-03 0.0000000000000000e+00  -2.5299000677366625e-03 -2.5739312424947927e-03 0.0000000000000000e+00  -2.3122506218340071e-03 -2.7988933582209349e-03 0.0000000000000000e+00  -2.9813236478331779e-03 -3.4585501362144572e-03 0.0000000000000000e+00  -2.4577255997855160e-03 -3.3644266300587853e-03 0.0000000000000000e+00  -2.3150515878441421e-03 -3.4579231046995037e-03 0.0000000000000000e+00  -2.5890159970009445e-03 -3.4047132696480593e-03 0.0000000000000000e+00  -2.5262025832094108e-03 -3.1797305833866614e-03 0.0000000000000000e+00  -3.3945166434132231e-03 -2.3438189981647701e-03 0.0000000000000000e+00  -3.3618038297741257e-03 -2.6331655931087486e-03 0.0000000000000000e+00  -3.1360907539563082e-03 -2.5690906485868804e-03 0.0000000000000000e+00  -2.3318378915044304e-03 -3.1124369336955303e-03 0.0000000000000000e+00  -3.4074334516053014e-03 -2.5070492144071235e-03 0.0000000000000000e+00  -2.3175956477547326e-03 -3.1668410411552278e-03 0.0000000000000000e+00  -3.4159053454841017e-03 -3.4322080378726941e-03 0.0000000000000000e+00  -2.6790426178589727e-03 -3.0951828389057020e-03 0.0000000000000000e+00  -3.0510187463778076e-03 -2.7189178284683698e-03 0.0000000000000000e+00  -3.1056830259176731e-03 -2.6497446455299636e-03 0.0000000000000000e+00  -3.1057019442226226e-03 -3.0941686858307086e-03 0.0000000000000000e+00  -3.0476015079775845e-03 -2.3747965510894941e-03 0.0000000000000000e+00  -3.3955121895954971e-03 -3.3002001804896598e-03 0.0000000000000000e+00  -3.3987024064590669e-03 -3.3139856881370233e-03 0.0000000000000000e+00  -2.9304501671201205e-03 -3.2184969793495315e-03 0.0000000000000000e+00  -2.3070762750959997e-03 -3.3940654520428211e-03 0.0000000000000000e+00  -2.3057459319627302e-03 -2.4617168403812196e-03 0.0000000000000000e+00  -2.3585239988661022e-03 -2.8696108429566492e-03 0.0000000000000000e+00  -2.5421910513249851e-03 -2.3546230592534708e-03 0.0000000000000000e+00  -3.2370424467814025e-03 -3.3621178362323169e-03 0.0000000000000000e+00  -2.8252454318830390e-03 -3.4296342677087167e-03 0.0000000000000000e+00  -3.3302022094389458e-03 -2.3515002990157608e-03 0.0000000000000000e+00  -2.6790562639988531e-03 -2.8695700597668448e-03 0.0000000000000000e+00  -2.5794805396084888e-03 -2.6131216937498461e-03 0.0000000000000000e+00  -2.8528899114500126e-03 -2.4548231368800438e-03 0.0000000000000000e+00  -2.3946870974106420e-03 -2.4819945138325398e-03 0.0000000000000000e+00  -2.3276850669446563e-03 -2.7482823405721095e-03 0.0000000000000000e+00  -2.6140185707932018e-03 -2.8464564593859484e-03 0.0000000000000000e+00  -2.7018910442568214e-03 -3.3875472160189895e-03 0.0000000000000000e+00  -3.3498589147217101e-03 -3.4598233375332616e-03 0.0000000000000000e+00  -3.0555162350511715e-03 -3.4145952776354093e-03 0.0000000000000000e+00  -2.9627894396620381e-03 -2.3649079529849933e-03 0.0000000000000000e+00  -3.0510280277673738e-03 -2.4267291546984145e-03 0.0000000000000000e+00  -2.8252726173345517e-03 -3.4047449044362298e-03 0.0000000000000000e+00  -2.9421910827696031e-03 -2.6619280418707291e-03 0.0000000000000000e+00  -2.3058670132345901e-03 -3.0155375894141906e-03 0.0000000000000000e+00  -3.0412796596039678e-03 -2.8696759173249442e-03 0.0000000000000000e+00  -3.3422524251533734e-03 -2.3932500440274882e-03 0.0000000000000000e+00  -3.2938012547194116e-03 -2.3977068570813650e-03 0.0000000000000000e+00  -2.3441996101426330e-03 -2.3632012515970458e-03 0.0000000000000000e+00  -2.8252256721896024e-03 -3.1455394904843048e-03 0.0000000000000000e+00  -3.0891385844428682e-03 -3.2576087510228936e-03 0.0000000000000000e+00  -2.5698170604916129e-03 -3.3547334650293466e-03 0.0000000000000000e+00  -2.3341904544379667e-03 -2.4404456872849350e-03 0.0000000000000000e+00  -3.3107260603479848e-03 -3.4109424896236859e-03 0.0000000000000000e+00  -2.5772664050185078e-03 -3.4603799633335119e-03 0.0000000000000000e+00  -2.3914424173087727e-03 -3.3056074033694432e-03 0.0000000000000000e+00  -3.3890702794166627e-03 -2.9264331585907334e-03 0.0000000000000000e+00  -2.3466930252932683e-03 -2.6201202501361688e-03 0.0000000000000000e+00  -3.3282885309250361e-03 -3.1413323780959297e-03 0.0000000000000000e+00  -2.5555598245368279e-03 -2.3982656608298042e-03 0.0000000000000000e+00  -2.5706506335218767e-03 -2.4995381588413992e-03 0.0000000000000000e+00  -2.4380534511982367e-03 -2.9431303262647300e-03 0.0000000000000000e+00  -2.8252187484824128e-03 -2.7189310290445198e-03 0.0000000000000000e+00  -2.6104877890872958e-03 -2.8296645322905003e-03 0.0000000000000000e+00  -3.4137209562680134e-03 -3.0854361199760811e-03 0.0000000000000000e+00  -3.3028156045058965e-03 -3.1190967072977972e-03 0.0000000000000000e+00  -2.8253107849152718e-03 -3.0854627609511760e-03 0.0000000000000000e+00  -3.2621762592297365e-03 -2.6782208035554022e-03 0.0000000000000000e+00  -3.0556058198098674e-03 -3.4049885028363588e-03 0.0000000000000000e+00  -3.4175805454556055e-03 -2.5286561832335709e-03 0.0000000000000000e+00  -2.3047425817006571e-03 -3.2864295584228652e-03 0.0000000000000000e+00  -2.4187524205920405e-03 -3.1963391752040382e-03 0.0000000000000000e+00  -2.4026872569323080e-03 -2.4617407678950072e-03 0.0000000000000000e+00  -2.8252535268657331e-03 -2.3996836849589516e-03 0.0000000000000000e+00  -3.0797588486500475e-03 -3.3855825464574026e-03 0.0000000000000000e+00  -2.4498452401538859e-03 -2.7115466616371305e-03 0.0000000000000000e+00  -3.0857374391435001e-03 -3.0633559665141450e-03 0.0000000000000000e+00  -2.4122198058352650e-03 -3.4123025374728868e-03 0.0000000000000000e+00  -2.4302367334504736e-03 -3.4456079033109701e-03 0.0000000000000000e+00  -2.8252454318830390e-03 -3.4296342677087167e-03 0.0000000000000000e+00  -2.7482222634927522e-03 -3.4605503156184972e-03 0.0000000000000000e+00  -3.3084241437444494e-03 -3.0789765079303577e-03 0.0000000000000000e+00  -3.4178761801256135e-03 -2.8311870154418902e-03 0.0000000000000000e+00  -3.3543512864986857e-03 -3.1472963387946498e-03 0.0000000000000000e+00  -2.4211885825587182e-03 -3.0951809863549490e-03 0.0000000000000000e+00  -3.3836665982824869e-03 -2.4803289704205585e-03 0.0000000000000000e+00  -2.8253245724467291e-03 -2.6588927749466524e-03 0.0000000000000000e+00  -3.0412796596039678e-03 -2.8696759173249442e-03 0.0000000000000000e+00  -2.6146808874047182e-03 -2.8697041893304765e-03 0.0000000000000000e+00  -2.8253107849152718e-03 -3.0854627609511760e-03 0.0000000000000000e+00  -2.8841941655303161e-03 -2.6492703515598078e-03 0.0000000000000000e+00  -3.0402214218047019e-03 -2.4791492907480341e-03 0.0000000000000000e+00  -2.6003158230211193e-03 -2.4468676766638631e-03 0.0000000000000000e+00  -2.3994864502977363e-03 -2.3440653833317246e-03 0.0000000000000000e+00  -2.6095231970639293e-03 -2.3497292523966496e-03 0.0000000000000000e+00  -3.3901129882347998e-03 -3.4604422271213861e-03 0.0000000000000000e+00  -2.8253245724467291e-03 -2.6588927749466524e-03 0.0000000000000000e+00  -2.6146808874047182e-03 -2.8697041893304765e-03 0.0000000000000000e+00  -3.4152668446594675e-03 -3.3420384862493054e-03 0.0000000000000000e+00  -2.3240557768339398e-03 -2.4003201274068620e-03 0.0000000000000000e+00  -2.3401496294987605e-03 -2.6054540243672865e-03 0.0000000000000000e+00  -2.7393212108203675e-03 -2.3708442551286031e-03 0.0000000000000000e+00  -2.9724683642360938e-03 -2.3681220316054061e-03 0.0000000000000000e+00  -3.1104602281381280e-03 -2.7869533607060766e-03 0.0000000000000000e+00  -3.0474395029335601e-03 -2.9414165194397686e-03 0.0000000000000000e+00  -2.8950049979016203e-03 -3.0855603761435545e-03 0.0000000000000000e+00  -2.8252535268657331e-03 -2.3996836849589516e-03 0.0000000000000000e+00  -2.8252802267218035e-03 -2.3748159806596791e-03 0.0000000000000000e+00  -3.1056796696593602e-03 -2.8695861840872900e-03 0.0000000000000000e+00  -2.8252187484824128e-03 -2.7189310290445198e-03 0.0000000000000000e+00  -2.3585239988661022e-03 -2.8696108429566492e-03 0.0000000000000000e+00  -2.6790562639988531e-03 -2.8695700597668448e-03 0.0000000000000000e+00  -2.3318663167864696e-03 -2.8696479843120445e-03 0.0000000000000000e+00  -2.8252726173345517e-03 -3.4047449044362298e-03 0.0000000000000000e+00  -2.8252256721896024e-03 -3.1455394904843048e-03 0.0000000000000000e+00  -2.8252802267218035e-03 -2.3748159806596791e-03 0.0000000000000000e+00  -2.3318663167864696e-03 -2.8696479843120445e-03 0.0000000000000000e+00  -3.1056796696593602e-03 -2.8695861840872900e-03 0.0000000000000000e+00  -3.3885175062799760e-03 -2.8696126053940479e-03 0.0000000000000000e+00  -3.3618342962468714e-03 -2.8696594865119372e-03 0.0000000000000000e+00  -3.3885175062799760e-03 -2.8696126053940479e-03 0.0000000000000000e+00  -3.3618342962468714e-03 -2.8696594865119372e-03 0.0000000000000000e+00  -3.3605697748805572e-03 -3.3988223694202129e-03 0.0000000000000000e+00  -3.2229858346440239e-03 -2.8223771768336329e-03 0.0000000000000000e+00  -3.2765105441348408e-03 -2.6617613000452741e-03 0.0000000000000000e+00  -3.0464735398978661e-03 -3.0906260778160808e-03 0.0000000000000000e+00  -3.3553647606659235e-03 -2.4199896182732494e-03 0.0000000000000000e+00  -3.4062685197754840e-03 -2.3446790819850218e-03 0.0000000000000000e+00  -3.4022379759385802e-03 -2.4144245354872683e-03 0.0000000000000000e+00  -2.6231270419992889e-03 -2.4395532399727276e-03 0.0000000000000000e+00  -2.3019312330955243e-03 -2.6632887826829274e-03 0.0000000000000000e+00  -3.4116118647116982e-03 -2.3915229103212915e-03 0.0000000000000000e+00  -3.0864369207662485e-03 -3.4149368716067281e-03 0.0000000000000000e+00  -2.5733906933289160e-03 -3.4375349700139471e-03 0.0000000000000000e+00  -2.7756727214814543e-03 -3.2591984382638012e-03 0.0000000000000000e+00  -3.3828353841363246e-03 -3.4188990316564509e-03 0.0000000000000000e+00  -2.3018234789224821e-03 -2.3509096697979562e-03 0.0000000000000000e+00  -2.3095379632076017e-03 -3.4037082060912180e-03 0.0000000000000000e+00  -2.3066233726510752e-03 -3.2602822876312098e-03 0.0000000000000000e+00  -3.2417039851138948e-03 -3.4140560587699606e-03 0.0000000000000000e+00  -2.4249361260873159e-03 -3.4430929355778843e-03 0.0000000000000000e+00  -3.2191644922753217e-03 -2.3580023485056212e-03 0.0000000000000000e+00  -2.3619417456744044e-03 -3.3015407299794592e-03 0.0000000000000000e+00  -2.3080835641460279e-03 -3.4559189805153444e-03 0.0000000000000000e+00  -3.0247892993289188e-03 -2.3440429292810850e-03 0.0000000000000000e+00  -3.4102804060519103e-03 -3.4582773980242889e-03 0.0000000000000000e+00  -3.2186065811879564e-03 -2.4113775746361110e-03 0.0000000000000000e+00  -3.2574080616389390e-03 -3.2517210961908447e-03 0.0000000000000000e+00  -3.1511642745710067e-03 -2.3660429668411046e-03 0.0000000000000000e+00  -3.1460297130916572e-03 -2.3951580927137777e-03 0.0000000000000000e+00  -2.4254360567019357e-03 -2.4766208043694332e-03 0.0000000000000000e+00  -2.3815315538340048e-03 -3.4588372511654311e-03 0.0000000000000000e+00  -2.7866223542132315e-03 -2.7732159570176469e-03 0.0000000000000000e+00  -3.3248817245327229e-03 -3.2533336539538071e-03 0.0000000000000000e+00  -3.0157936924574652e-03 -3.2561703673616026e-03 0.0000000000000000e+00  -3.2887707163416517e-03 -2.5097449375263998e-03 0.0000000000000000e+00  -3.3954420645542645e-03 -3.4227525047169018e-03 0.0000000000000000e+00  -3.0157417381106648e-03 -2.5525503744287517e-03 0.0000000000000000e+00  -2.6478341738758043e-03 -2.6435237784568797e-03 0.0000000000000000e+00  -3.4021504309141421e-03 -3.1057665817559236e-03 0.0000000000000000e+00  -2.3135328991591075e-03 -3.3833163112438440e-03 0.0000000000000000e+00  -3.2018948207989165e-03 -3.2318069476286156e-03 0.0000000000000000e+00  -3.1996052048727471e-03 -3.4461311885477602e-03 0.0000000000000000e+00  -3.4070138917308233e-03 -2.6645718094104516e-03 0.0000000000000000e+00  -3.4178719448288491e-03 -2.6870594870835804e-03 0.0000000000000000e+00  -2.7627159823022246e-03 -3.3000228423228843e-03 0.0000000000000000e+00  -2.5109935118958412e-03 -3.0752832999512035e-03 0.0000000000000000e+00  -2.7136096804523000e-03 -3.0153821306909460e-03 0.0000000000000000e+00  -2.3442384214964443e-03 -2.3618129659336955e-03 0.0000000000000000e+00  -3.3426893409641560e-03 -2.6146332646698801e-03 0.0000000000000000e+00  -3.4186472051568159e-03 -3.3729260823759386e-03 0.0000000000000000e+00  -2.7770048773242744e-03 -2.5798851343326818e-03 0.0000000000000000e+00  -2.8854421742764507e-03 -3.4176983667854309e-03 0.0000000000000000e+00  -3.3773879468392176e-03 -2.9722628962996918e-03 0.0000000000000000e+00  -3.0004766334907691e-03 -3.4485468062968160e-03 0.0000000000000000e+00  -2.9832467651164122e-03 -3.4555657069693471e-03 0.0000000000000000e+00  -2.3200778913349878e-03 -2.3456764451978743e-03 0.0000000000000000e+00  -2.5922543447023400e-03 -3.3211682504690780e-03 0.0000000000000000e+00  -2.3234144341254697e-03 -2.4617390761674926e-03 0.0000000000000000e+00  -2.3773692219807687e-03 -2.7265526872118583e-03 0.0000000000000000e+00  -2.5428032561106979e-03 -3.4079897421462344e-03 0.0000000000000000e+00  -3.3202082719036704e-03 -2.3469311697551700e-03 0.0000000000000000e+00  -2.9191803283277326e-03 -3.3583487254705926e-03 0.0000000000000000e+00  -2.4430694499201384e-03 -2.6901375085583304e-03 0.0000000000000000e+00  -3.1825087065226630e-03 -3.4442808415028358e-03 0.0000000000000000e+00  -2.6590857342834303e-03 -3.0064167295762250e-03 0.0000000000000000e+00  -2.6697593730746851e-03 -3.2566414347190704e-03 0.0000000000000000e+00  -2.4269386952215236e-03 -3.1165667358289541e-03 0.0000000000000000e+00  -2.5966773592511500e-03 -2.3478918685183223e-03 0.0000000000000000e+00  -2.3412256394258163e-03 -3.1189036700620611e-03 0.0000000000000000e+00  -2.3673163580393637e-03 -2.6130568087601625e-03 0.0000000000000000e+00  -3.3302489674098775e-03 -2.8120050161110854e-03 0.0000000000000000e+00  -3.1766587703073788e-03 -2.4359039027115580e-03 0.0000000000000000e+00  -3.0106620142671971e-03 -2.4638354410658160e-03 0.0000000000000000e+00  -3.1449576747106748e-03 -3.4570739449185693e-03 0.0000000000000000e+00  -2.8894555915229673e-03 -3.4511847631126442e-03 0.0000000000000000e+00  -2.6870456493246950e-03 -2.3491204442443645e-03 0.0000000000000000e+00  -2.4154825751860273e